
     Program PWSCF v.6.7MaX starts on  1Nov2021 at 20:29:58 

     This program is part of the open-source Quantum ESPRESSO suite
     for quantum simulation of materials; please cite
         "P. Giannozzi et al., J. Phys.:Condens. Matter 21 395502 (2009);
         "P. Giannozzi et al., J. Phys.:Condens. Matter 29 465901 (2017);
          URL http://www.quantum-espresso.org", 
     in publications or presentations arising from this work. More details at
     http://www.quantum-espresso.org/quote

     Parallel version (MPI), running on     8 processors

     MPI processes distributed on     1 nodes
     R & G space division:  proc/nbgrp/npool/nimage =       8
     Waiting for input...
     Reading input from standard input

     Current dimensions of program PWSCF are:
     Max number of different atomic species (ntypx) = 10
     Max number of k-points (npk) =  40000
     Max angular momentum in pseudopotentials (lmaxx) =  3
     file B.pbe-n-rrkjus_psl.1.0.0.UPF: wavefunction(s)  2S renormalized

     Subspace diagonalization in iterative solution of the eigenvalue problem:
     one sub-group per band group will be used
     scalapack distributed-memory algorithm (size of sub-group:  2*  2 procs)

 
     Parallelization info
     --------------------
     sticks:   dense  smooth     PW     G-vecs:    dense   smooth      PW
     Min        1660     970    251                86120    38376    5067
     Max        1661     972    253                86123    38377    5068
     Sum       13287    7765   2019               688971   307011   40537
 


     bravais-lattice index     =            8
     lattice parameter (alat)  =      31.5316  a.u.
     unit-cell volume          =   10973.0920 (a.u.)^3
     number of atoms/cell      =           65
     number of atomic types    =            2
     number of electrons       =       208.00
     number of Kohn-Sham states=          125
     kinetic-energy cutoff     =      35.0000  Ry
     charge density cutoff     =     240.0000  Ry
     scf convergence threshold =      1.0E-06
     mixing beta               =       0.1000
     number of iterations used =            8  plain     mixing
     Exchange-correlation= PBE
                           (   1   4   3   4   0   0   0)

     celldm(1)=  31.531592  celldm(2)=   0.700038  celldm(3)=   0.499999
     celldm(4)=   0.000000  celldm(5)=   0.000000  celldm(6)=   0.000000

     crystal axes: (cart. coord. in units of alat)
               a(1) = (   1.000000   0.000000   0.000000 )  
               a(2) = (   0.000000   0.700038   0.000000 )  
               a(3) = (   0.000000   0.000000   0.499999 )  

     reciprocal axes: (cart. coord. in units 2 pi/alat)
               b(1) = (  1.000000  0.000000  0.000000 )  
               b(2) = (  0.000000  1.428493  0.000000 )  
               b(3) = (  0.000000  0.000000  2.000002 )  


     PseudoPot. # 1 for B  read from file:
     ./B.pbe-n-rrkjus_psl.1.0.0.UPF
     MD5 check sum: 21bc42b8719306ef1fe0545c7dabf1c6
     Pseudo is Ultrasoft + core correction, Zval =  3.0
     Generated using &quot;atomic&quot; code by A. Dal Corso  v.6.3MaX
     Using radial grid of 1059 points,  4 beta functions with: 
                l(1) =   0
                l(2) =   0
                l(3) =   1
                l(4) =   1
     Q(r) pseudized with 0 coefficients 


     PseudoPot. # 2 for Fe read from file:
     ./Fe.pbe-spn-rrkjus_psl.1.0.0.UPF
     MD5 check sum: 72ea77fed8e64ab3a2ccf2804dfc1862
     Pseudo is Ultrasoft + core correction, Zval = 16.0
     Generated using &quot;atomic&quot; code by A. Dal Corso  v.6.3
     Using radial grid of 1191 points,  6 beta functions with: 
                l(1) =   0
                l(2) =   0
                l(3) =   1
                l(4) =   1
                l(5) =   2
                l(6) =   2
     Q(r) pseudized with 0 coefficients 


     atomic species   valence    mass     pseudopotential
        B              3.00    10.81100     B ( 1.00)
        Fe            16.00    55.84500     Fe( 1.00)

     Starting magnetic structure 
     atomic species   magnetization
        B            1.000
        Fe           0.000

     No symmetry found


                                    s                        frac. trans.

      isym =  1     identity                                     

 cryst.   s( 1) = (     1          0          0      )
                  (     0          1          0      )
                  (     0          0          1      )

 cart.    s( 1) = (  1.0000000  0.0000000  0.0000000 )
                  (  0.0000000  1.0000000  0.0000000 )
                  (  0.0000000  0.0000000  1.0000000 )


     point group C_1 (1)    
     there are  1 classes
     the character table:

       E    
A      1.00

     the symmetry operations in each class and the name of the first element:

     E        1
          identity                                               

   Cartesian axes

     site n.     atom                  positions (alat units)
         1           B   tau(   1) = (   0.6046300   0.5269679   0.2439047  )
         2           B   tau(   2) = (   0.7026400   0.5256868   0.2515597  )
         3           B   tau(   3) = (   0.7988000   0.5243777   0.2500097  )
         4           B   tau(   4) = (   0.8979400   0.5245807   0.2508747  )
         5           B   tau(   5) = (   0.5480400   0.6120785   0.2510347  )
         6           B   tau(   6) = (   0.6490000   0.6136186   0.2506697  )
         7           B   tau(   7) = (   0.8523100   0.6127436   0.2505597  )
         8           B   tau(   8) = (   0.9518900   0.6128556   0.2494897  )
         9           B   tau(   9) = (   0.6008800   0.0005600   0.2526747  )
        10           B   tau(  10) = (   0.7015900   0.0004410   0.2462347  )
        11           B   tau(  11) = (   0.7981200   0.0000000   0.2490947  )
        12           B   tau(  12) = (   0.8974300   0.0000000   0.2493897  )
        13           B   tau(  13) = (   0.5481000   0.0880088   0.2509697  )
        14           B   tau(  14) = (   0.6489100   0.0867628   0.2511647  )
        15           B   tau(  15) = (   0.8525700   0.0880648   0.2516297  )
        16           B   tau(  16) = (   0.9518600   0.0884288   0.2487697  )
        17           B   tau(  17) = (   0.6043900   0.1741065   0.2480947  )
        18           B   tau(  18) = (   0.7027100   0.1755626   0.2489247  )
        19           B   tau(  19) = (   0.7987900   0.1748416   0.2519347  )
        20           B   tau(  20) = (   0.8978500   0.1748486   0.2494047  )
        21           B   tau(  21) = (   0.5483800   0.2592102   0.2509597  )
        22           B   tau(  22) = (   0.6499300   0.2613243   0.2433147  )
        23           B   tau(  23) = (   0.8521800   0.2629484   0.2496547  )
        24           B   tau(  24) = (   0.9522300   0.2632914   0.2505747  )
        25           B   tau(  25) = (   0.6047800   0.3500402   0.2567347  )
        26           B   tau(  26) = (   0.7028400   0.3499562   0.2506947  )
        27           B   tau(  27) = (   0.7986700   0.3493961   0.2491347  )
        28           B   tau(  28) = (   0.8985000   0.3498862   0.2495047  )
        29           B   tau(  29) = (   0.5482100   0.4423402   0.2467847  )
        30           B   tau(  30) = (   0.6495200   0.4386580   0.2475147  )
        31           B   tau(  31) = (   0.8526500   0.4378180   0.2489247  )
        32           B   tau(  32) = (   0.9521200   0.4375100   0.2516497  )
        33           B   tau(  33) = (   0.1019200   0.5246157   0.2508797  )
        34           B   tau(  34) = (   0.2011300   0.5243567   0.2500197  )
        35           B   tau(  35) = (   0.2973100   0.5257008   0.2515997  )
        36           B   tau(  36) = (   0.3953500   0.5269539   0.2437447  )
        37           B   tau(  37) = (   0.0480200   0.6128906   0.2494547  )
        38           B   tau(  38) = (   0.1475800   0.6127436   0.2505597  )
        39           B   tau(  39) = (   0.3509700   0.6135766   0.2508597  )
        40           B   tau(  40) = (   0.4519300   0.6120855   0.2509347  )
        41           B   tau(  41) = (   0.1024700   0.0000000   0.2494647  )
        42           B   tau(  42) = (   0.2018000   0.0000000   0.2491847  )
        43           B   tau(  43) = (   0.2983300   0.0004200   0.2464197  )
        44           B   tau(  44) = (   0.3990100   0.0005250   0.2525147  )
        45           B   tau(  45) = (   0.0480400   0.0884008   0.2487797  )
        46           B   tau(  46) = (   0.1473300   0.0880508   0.2515697  )
        47           B   tau(  47) = (   0.3510000   0.0867558   0.2513247  )
        48           B   tau(  48) = (   0.4518100   0.0879948   0.2508597  )
        49           B   tau(  49) = (   0.1020200   0.1748346   0.2494047  )
        50           B   tau(  50) = (   0.2010900   0.1749046   0.2518797  )
        51           B   tau(  51) = (   0.2971700   0.1755136   0.2488547  )
        52           B   tau(  52) = (   0.3955200   0.1740855   0.2479547  )
        53           B   tau(  53) = (   0.0476200   0.2632284   0.2506147  )
        54           B   tau(  54) = (   0.1477400   0.2629414   0.2496647  )
        55           B   tau(  55) = (   0.3499100   0.2612893   0.2430497  )
        56           B   tau(  56) = (   0.4515700   0.2592032   0.2505347  )
        57           B   tau(  57) = (   0.1014000   0.3498792   0.2496297  )
        58           B   tau(  58) = (   0.2011900   0.3493401   0.2491647  )
        59           B   tau(  59) = (   0.2970300   0.3499492   0.2505297  )
        60           B   tau(  60) = (   0.3951700   0.3499842   0.2554647  )
        61           B   tau(  61) = (   0.0477100   0.4375170   0.2516997  )
        62           B   tau(  62) = (   0.1471700   0.4378390   0.2488797  )
        63           B   tau(  63) = (   0.3503600   0.4386230   0.2474147  )
        64           B   tau(  64) = (   0.4516900   0.4424032   0.2463497  )
        65           Fe  tau(  65) = (   0.4998400   0.3525253   0.3055996  )

   Crystallographic axes

     site n.     atom                  positions (cryst. coord.)
         1           B   tau(   1) = (  0.6046300  0.7527700  0.4878100  )
         2           B   tau(   2) = (  0.7026400  0.7509400  0.5031200  )
         3           B   tau(   3) = (  0.7988000  0.7490700  0.5000200  )
         4           B   tau(   4) = (  0.8979400  0.7493600  0.5017500  )
         5           B   tau(   5) = (  0.5480400  0.8743500  0.5020700  )
         6           B   tau(   6) = (  0.6490000  0.8765500  0.5013400  )
         7           B   tau(   7) = (  0.8523100  0.8753000  0.5011200  )
         8           B   tau(   8) = (  0.9518900  0.8754600  0.4989800  )
         9           B   tau(   9) = (  0.6008800  0.0008000  0.5053500  )
        10           B   tau(  10) = (  0.7015900  0.0006300  0.4924700  )
        11           B   tau(  11) = (  0.7981200  0.0000000  0.4981900  )
        12           B   tau(  12) = (  0.8974300  0.0000000  0.4987800  )
        13           B   tau(  13) = (  0.5481000  0.1257200  0.5019400  )
        14           B   tau(  14) = (  0.6489100  0.1239400  0.5023300  )
        15           B   tau(  15) = (  0.8525700  0.1258000  0.5032600  )
        16           B   tau(  16) = (  0.9518600  0.1263200  0.4975400  )
        17           B   tau(  17) = (  0.6043900  0.2487100  0.4961900  )
        18           B   tau(  18) = (  0.7027100  0.2507900  0.4978500  )
        19           B   tau(  19) = (  0.7987900  0.2497600  0.5038700  )
        20           B   tau(  20) = (  0.8978500  0.2497700  0.4988100  )
        21           B   tau(  21) = (  0.5483800  0.3702800  0.5019200  )
        22           B   tau(  22) = (  0.6499300  0.3733000  0.4866300  )
        23           B   tau(  23) = (  0.8521800  0.3756200  0.4993100  )
        24           B   tau(  24) = (  0.9522300  0.3761100  0.5011500  )
        25           B   tau(  25) = (  0.6047800  0.5000300  0.5134700  )
        26           B   tau(  26) = (  0.7028400  0.4999100  0.5013900  )
        27           B   tau(  27) = (  0.7986700  0.4991100  0.4982700  )
        28           B   tau(  28) = (  0.8985000  0.4998100  0.4990100  )
        29           B   tau(  29) = (  0.5482100  0.6318800  0.4935700  )
        30           B   tau(  30) = (  0.6495200  0.6266200  0.4950300  )
        31           B   tau(  31) = (  0.8526500  0.6254200  0.4978500  )
        32           B   tau(  32) = (  0.9521200  0.6249800  0.5033000  )
        33           B   tau(  33) = (  0.1019200  0.7494100  0.5017600  )
        34           B   tau(  34) = (  0.2011300  0.7490400  0.5000400  )
        35           B   tau(  35) = (  0.2973100  0.7509600  0.5032000  )
        36           B   tau(  36) = (  0.3953500  0.7527500  0.4874900  )
        37           B   tau(  37) = (  0.0480200  0.8755100  0.4989100  )
        38           B   tau(  38) = (  0.1475800  0.8753000  0.5011200  )
        39           B   tau(  39) = (  0.3509700  0.8764900  0.5017200  )
        40           B   tau(  40) = (  0.4519300  0.8743600  0.5018700  )
        41           B   tau(  41) = (  0.1024700  0.0000000  0.4989300  )
        42           B   tau(  42) = (  0.2018000  0.0000000  0.4983700  )
        43           B   tau(  43) = (  0.2983300  0.0006000  0.4928400  )
        44           B   tau(  44) = (  0.3990100  0.0007500  0.5050300  )
        45           B   tau(  45) = (  0.0480400  0.1262800  0.4975600  )
        46           B   tau(  46) = (  0.1473300  0.1257800  0.5031400  )
        47           B   tau(  47) = (  0.3510000  0.1239300  0.5026500  )
        48           B   tau(  48) = (  0.4518100  0.1257000  0.5017200  )
        49           B   tau(  49) = (  0.1020200  0.2497500  0.4988100  )
        50           B   tau(  50) = (  0.2010900  0.2498500  0.5037600  )
        51           B   tau(  51) = (  0.2971700  0.2507200  0.4977100  )
        52           B   tau(  52) = (  0.3955200  0.2486800  0.4959100  )
        53           B   tau(  53) = (  0.0476200  0.3760200  0.5012300  )
        54           B   tau(  54) = (  0.1477400  0.3756100  0.4993300  )
        55           B   tau(  55) = (  0.3499100  0.3732500  0.4861000  )
        56           B   tau(  56) = (  0.4515700  0.3702700  0.5010700  )
        57           B   tau(  57) = (  0.1014000  0.4998000  0.4992600  )
        58           B   tau(  58) = (  0.2011900  0.4990300  0.4983300  )
        59           B   tau(  59) = (  0.2970300  0.4999000  0.5010600  )
        60           B   tau(  60) = (  0.3951700  0.4999500  0.5109300  )
        61           B   tau(  61) = (  0.0477100  0.6249900  0.5034000  )
        62           B   tau(  62) = (  0.1471700  0.6254500  0.4977600  )
        63           B   tau(  63) = (  0.3503600  0.6265700  0.4948300  )
        64           B   tau(  64) = (  0.4516900  0.6319700  0.4927000  )
        65           Fe  tau(  65) = (  0.4998400  0.5035800  0.6112000  )

     number of k points=     5  Marzari-Vanderbilt smearing, width (Ry)=  0.0020
                       cart. coord. in units 2pi/alat
        k(    1) = (   0.0000000   0.0000000   0.0000000), wk =   0.1111111
        k(    2) = (   0.0000000   0.4761644   0.0000000), wk =   0.2222222
        k(    3) = (   0.3333333   0.0000000   0.0000000), wk =   0.2222222
        k(    4) = (   0.3333333   0.4761644   0.0000000), wk =   0.2222222
        k(    5) = (  -0.3333333   0.4761644   0.0000000), wk =   0.2222222

                       cryst. coord.
        k(    1) = (   0.0000000   0.0000000   0.0000000), wk =   0.1111111
        k(    2) = (   0.0000000   0.3333333   0.0000000), wk =   0.2222222
        k(    3) = (   0.3333333   0.0000000   0.0000000), wk =   0.2222222
        k(    4) = (   0.3333333   0.3333333   0.0000000), wk =   0.2222222
        k(    5) = (  -0.3333333   0.3333333   0.0000000), wk =   0.2222222

     Dense  grid:   688971 G-vectors     FFT dimensions: ( 160, 120,  80)

     Smooth grid:   307011 G-vectors     FFT dimensions: ( 120,  90,  60)

     Dynamical RAM for                 wfc:       9.15 MB

     Dynamical RAM for     wfc (w. buffer):     100.62 MB

     Dynamical RAM for           str. fact:       2.63 MB

     Dynamical RAM for           local pot:       0.00 MB

     Dynamical RAM for          nlocal pot:      38.79 MB

     Dynamical RAM for                qrad:       2.49 MB

     Dynamical RAM for          rho,v,vnew:      16.67 MB

     Dynamical RAM for               rhoin:       5.56 MB

     Dynamical RAM for            rho*nmix:      42.05 MB

     Dynamical RAM for           G-vectors:       5.22 MB

     Dynamical RAM for          h,s,v(r/c):       0.72 MB

     Dynamical RAM for          <psi|beta>:       1.01 MB

     Dynamical RAM for                 psi:      18.30 MB

     Dynamical RAM for                hpsi:      18.30 MB

     Dynamical RAM for                spsi:      18.30 MB

     Dynamical RAM for      wfcinit/wfcrot:      40.55 MB

     Dynamical RAM for           addusdens:     329.85 MB

     Estimated static dynamical RAM per process >     226.76 MB

     Estimated max dynamical RAM per process >     556.61 MB

     Estimated total dynamical RAM >       4.35 GB

     Check: negative core charge=   -0.000002
     Generating pointlists ...
     new r_m :   0.0393 (alat units)  1.2407 (a.u.) for type    1
     new r_m :   0.0478 (alat units)  1.5060 (a.u.) for type    2

     Initial potential from superposition of free atoms

     starting charge  207.98149, renormalised to  208.00000

     negative rho (up, down):  0.000E+00 3.527E-03
     Starting wfcs are  266 randomized atomic wfcs

     total cpu time spent up to now is       23.3 secs

     Self-consistent Calculation

     iteration #  1     ecut=    35.00 Ry     beta= 0.10
     Davidson diagonalization with overlap
     ethr =  1.00E-02,  avg # of iterations =  2.3

     negative rho (up, down):  0.000E+00 1.364E-03

     total cpu time spent up to now is       58.7 secs

     total energy              =    -636.00579480 Ry
     estimated scf accuracy    <      12.34556902 Ry

     total magnetization       =    41.01 Bohr mag/cell
     absolute magnetization    =    41.47 Bohr mag/cell

     iteration #  2     ecut=    35.00 Ry     beta= 0.10
     Davidson diagonalization with overlap
     ethr =  5.94E-03,  avg # of iterations =  1.5

     negative rho (up, down):  5.227E-07 1.114E-02

     total cpu time spent up to now is       84.0 secs

     total energy              =    -637.33941259 Ry
     estimated scf accuracy    <      23.53903896 Ry

     total magnetization       =    27.71 Bohr mag/cell
     absolute magnetization    =    28.05 Bohr mag/cell

     iteration #  3     ecut=    35.00 Ry     beta= 0.10
     Davidson diagonalization with overlap
     ethr =  5.94E-03,  avg # of iterations =  1.0

     negative rho (up, down):  1.375E-03 2.342E-02

     total cpu time spent up to now is      108.1 secs

     total energy              =    -642.10570600 Ry
     estimated scf accuracy    <       7.89471148 Ry

     total magnetization       =    27.82 Bohr mag/cell
     absolute magnetization    =    28.10 Bohr mag/cell

     iteration #  4     ecut=    35.00 Ry     beta= 0.10
     Davidson diagonalization with overlap
     ethr =  3.80E-03,  avg # of iterations =  1.6

     negative rho (up, down):  2.566E-02 7.052E-02

     total cpu time spent up to now is      133.8 secs

     total energy              =    -646.41890311 Ry
     estimated scf accuracy    <       5.62767691 Ry

     total magnetization       =    21.54 Bohr mag/cell
     absolute magnetization    =    22.17 Bohr mag/cell

     iteration #  5     ecut=    35.00 Ry     beta= 0.10
     Davidson diagonalization with overlap
     ethr =  2.71E-03,  avg # of iterations =  1.5

     negative rho (up, down):  2.186E-02 5.768E-02

     total cpu time spent up to now is      159.5 secs

     total energy              =    -647.18749281 Ry
     estimated scf accuracy    <       2.73875255 Ry

     total magnetization       =    14.20 Bohr mag/cell
     absolute magnetization    =    14.64 Bohr mag/cell

     iteration #  6     ecut=    35.00 Ry     beta= 0.10
     Davidson diagonalization with overlap
     ethr =  1.32E-03,  avg # of iterations =  1.3

     negative rho (up, down):  2.668E-02 5.599E-02

     total cpu time spent up to now is      184.1 secs

     total energy              =    -648.01650337 Ry
     estimated scf accuracy    <       1.14647409 Ry

     total magnetization       =    11.88 Bohr mag/cell
     absolute magnetization    =    12.30 Bohr mag/cell

     iteration #  7     ecut=    35.00 Ry     beta= 0.10
     Davidson diagonalization with overlap
     ethr =  5.51E-04,  avg # of iterations =  4.2

     negative rho (up, down):  3.644E-02 5.661E-02

     total cpu time spent up to now is      211.1 secs

     total energy              =    -648.69949054 Ry
     estimated scf accuracy    <       0.68540629 Ry

     total magnetization       =     9.79 Bohr mag/cell
     absolute magnetization    =    10.21 Bohr mag/cell

     iteration #  8     ecut=    35.00 Ry     beta= 0.10
     Davidson diagonalization with overlap
     ethr =  3.30E-04,  avg # of iterations =  2.5

     negative rho (up, down):  3.134E-02 4.817E-02

     total cpu time spent up to now is      237.3 secs

     total energy              =    -648.86750854 Ry
     estimated scf accuracy    <       0.95459174 Ry

     total magnetization       =     5.56 Bohr mag/cell
     absolute magnetization    =     6.19 Bohr mag/cell

     iteration #  9     ecut=    35.00 Ry     beta= 0.10
     Davidson diagonalization with overlap
     ethr =  3.30E-04,  avg # of iterations =  1.0

     negative rho (up, down):  3.142E-02 4.478E-02

     total cpu time spent up to now is      261.3 secs

     total energy              =    -648.90356264 Ry
     estimated scf accuracy    <       0.89353241 Ry

     total magnetization       =     5.08 Bohr mag/cell
     absolute magnetization    =     5.78 Bohr mag/cell

     iteration # 10     ecut=    35.00 Ry     beta= 0.10
     Davidson diagonalization with overlap
     ethr =  3.30E-04,  avg # of iterations =  2.7

     negative rho (up, down):  3.175E-02 4.223E-02

     total cpu time spent up to now is      286.1 secs

     total energy              =    -648.96124242 Ry
     estimated scf accuracy    <       0.03234272 Ry

     total magnetization       =     3.97 Bohr mag/cell
     absolute magnetization    =     4.62 Bohr mag/cell

     iteration # 11     ecut=    35.00 Ry     beta= 0.10
     Davidson diagonalization with overlap
     c_bands:  1 eigenvalues not converged
     ethr =  1.55E-05,  avg # of iterations = 15.3

     negative rho (up, down):  2.851E-02 3.745E-02

     total cpu time spent up to now is      322.5 secs

     total energy              =    -648.98058857 Ry
     estimated scf accuracy    <       0.00907903 Ry

     total magnetization       =     2.09 Bohr mag/cell
     absolute magnetization    =     2.92 Bohr mag/cell

     iteration # 12     ecut=    35.00 Ry     beta= 0.10
     Davidson diagonalization with overlap
     ethr =  4.36E-06,  avg # of iterations =  3.3

     negative rho (up, down):  2.520E-02 3.337E-02

     total cpu time spent up to now is      349.1 secs

     total energy              =    -648.99001957 Ry
     estimated scf accuracy    <       0.00878645 Ry

     total magnetization       =     2.06 Bohr mag/cell
     absolute magnetization    =     2.79 Bohr mag/cell

     iteration # 13     ecut=    35.00 Ry     beta= 0.10
     Davidson diagonalization with overlap
     ethr =  4.22E-06,  avg # of iterations =  2.6

     negative rho (up, down):  2.251E-02 3.009E-02

     total cpu time spent up to now is      374.7 secs

     total energy              =    -648.99761108 Ry
     estimated scf accuracy    <       0.00316790 Ry

     total magnetization       =     1.98 Bohr mag/cell
     absolute magnetization    =     2.56 Bohr mag/cell

     iteration # 14     ecut=    35.00 Ry     beta= 0.10
     Davidson diagonalization with overlap
     ethr =  1.52E-06,  avg # of iterations =  6.1

     negative rho (up, down):  1.956E-02 2.630E-02

     total cpu time spent up to now is      404.7 secs

     total energy              =    -649.00177596 Ry
     estimated scf accuracy    <       0.00185908 Ry

     total magnetization       =     1.65 Bohr mag/cell
     absolute magnetization    =     2.18 Bohr mag/cell

     iteration # 15     ecut=    35.00 Ry     beta= 0.10
     Davidson diagonalization with overlap
     ethr =  8.94E-07,  avg # of iterations =  3.7

     negative rho (up, down):  1.748E-02 2.420E-02

     total cpu time spent up to now is      431.2 secs

     total energy              =    -649.00624755 Ry
     estimated scf accuracy    <       0.00131441 Ry

     total magnetization       =     1.56 Bohr mag/cell
     absolute magnetization    =     2.07 Bohr mag/cell

     iteration # 16     ecut=    35.00 Ry     beta= 0.10
     Davidson diagonalization with overlap
     ethr =  6.32E-07,  avg # of iterations =  3.0

     negative rho (up, down):  1.559E-02 2.222E-02

     total cpu time spent up to now is      461.1 secs

     total energy              =    -649.00975427 Ry
     estimated scf accuracy    <       0.00095436 Ry

     total magnetization       =     1.26 Bohr mag/cell
     absolute magnetization    =     1.74 Bohr mag/cell

     iteration # 17     ecut=    35.00 Ry     beta= 0.10
     Davidson diagonalization with overlap
     ethr =  4.59E-07,  avg # of iterations =  4.7

     negative rho (up, down):  1.330E-02 1.945E-02

     total cpu time spent up to now is      492.1 secs

     total energy              =    -649.01174993 Ry
     estimated scf accuracy    <       0.00063069 Ry

     total magnetization       =     1.31 Bohr mag/cell
     absolute magnetization    =     1.67 Bohr mag/cell

     iteration # 18     ecut=    35.00 Ry     beta= 0.10
     Davidson diagonalization with overlap
     ethr =  3.03E-07,  avg # of iterations =  2.5

     negative rho (up, down):  1.147E-02 1.712E-02

     total cpu time spent up to now is      518.5 secs

     total energy              =    -649.01350651 Ry
     estimated scf accuracy    <       0.00059873 Ry

     total magnetization       =     1.31 Bohr mag/cell
     absolute magnetization    =     1.65 Bohr mag/cell

     iteration # 19     ecut=    35.00 Ry     beta= 0.10
     Davidson diagonalization with overlap
     ethr =  2.88E-07,  avg # of iterations =  1.8

     negative rho (up, down):  9.737E-03 1.534E-02

     total cpu time spent up to now is      544.1 secs

     total energy              =    -649.01497978 Ry
     estimated scf accuracy    <       0.00055376 Ry

     total magnetization       =     1.32 Bohr mag/cell
     absolute magnetization    =     1.63 Bohr mag/cell

     iteration # 20     ecut=    35.00 Ry     beta= 0.10
     Davidson diagonalization with overlap
     ethr =  2.66E-07,  avg # of iterations =  1.8

     negative rho (up, down):  8.835E-03 1.207E-02

     total cpu time spent up to now is      570.1 secs

     total energy              =    -649.01607017 Ry
     estimated scf accuracy    <       0.00055050 Ry

     total magnetization       =     1.32 Bohr mag/cell
     absolute magnetization    =     1.60 Bohr mag/cell

     iteration # 21     ecut=    35.00 Ry     beta= 0.10
     Davidson diagonalization with overlap
     ethr =  2.65E-07,  avg # of iterations =  4.1

     negative rho (up, down):  6.964E-03 1.144E-02

     total cpu time spent up to now is      596.2 secs

     total energy              =    -649.01684644 Ry
     estimated scf accuracy    <       0.00056028 Ry

     total magnetization       =     1.32 Bohr mag/cell
     absolute magnetization    =     1.60 Bohr mag/cell

     iteration # 22     ecut=    35.00 Ry     beta= 0.10
     Davidson diagonalization with overlap
     ethr =  2.65E-07,  avg # of iterations =  2.6

     negative rho (up, down):  8.085E-03 6.040E-03

     total cpu time spent up to now is      623.3 secs

     total energy              =    -649.01695332 Ry
     estimated scf accuracy    <       0.00069237 Ry

     total magnetization       =     1.31 Bohr mag/cell
     absolute magnetization    =     1.61 Bohr mag/cell

     iteration # 23     ecut=    35.00 Ry     beta= 0.10
     Davidson diagonalization with overlap
     ethr =  2.65E-07,  avg # of iterations =  3.8

     negative rho (up, down):  9.109E-03 4.532E-03

     total cpu time spent up to now is      654.6 secs

     total energy              =    -649.01711932 Ry
     estimated scf accuracy    <       0.00089674 Ry

     total magnetization       =     1.31 Bohr mag/cell
     absolute magnetization    =     1.59 Bohr mag/cell

     iteration # 24     ecut=    35.00 Ry     beta= 0.10
     Davidson diagonalization with overlap
     ethr =  2.65E-07,  avg # of iterations =  2.7

     negative rho (up, down):  9.594E-03 4.744E-03

     total cpu time spent up to now is      684.2 secs

     total energy              =    -649.01720147 Ry
     estimated scf accuracy    <       0.00034588 Ry

     total magnetization       =     1.32 Bohr mag/cell
     absolute magnetization    =     1.59 Bohr mag/cell

     iteration # 25     ecut=    35.00 Ry     beta= 0.10
     Davidson diagonalization with overlap
     ethr =  1.66E-07,  avg # of iterations =  2.3

     negative rho (up, down):  9.556E-03 5.238E-03

     total cpu time spent up to now is      713.3 secs

     total energy              =    -649.01733706 Ry
     estimated scf accuracy    <       0.00028344 Ry

     total magnetization       =     1.32 Bohr mag/cell
     absolute magnetization    =     1.63 Bohr mag/cell

     iteration # 26     ecut=    35.00 Ry     beta= 0.10
     Davidson diagonalization with overlap
     ethr =  1.36E-07,  avg # of iterations =  2.0

     negative rho (up, down):  1.168E-02 5.936E-03

     total cpu time spent up to now is      741.0 secs

     total energy              =    -649.01724932 Ry
     estimated scf accuracy    <       0.00019738 Ry

     total magnetization       =     1.32 Bohr mag/cell
     absolute magnetization    =     1.66 Bohr mag/cell

     iteration # 27     ecut=    35.00 Ry     beta= 0.10
     Davidson diagonalization with overlap
     ethr =  9.49E-08,  avg # of iterations =  4.0

     negative rho (up, down):  1.144E-02 5.338E-03

     total cpu time spent up to now is      776.1 secs

     total energy              =    -649.01782219 Ry
     estimated scf accuracy    <       0.00015734 Ry

     total magnetization       =     1.31 Bohr mag/cell
     absolute magnetization    =     1.70 Bohr mag/cell

     iteration # 28     ecut=    35.00 Ry     beta= 0.10
     Davidson diagonalization with overlap
     ethr =  7.56E-08,  avg # of iterations =  2.1

     negative rho (up, down):  1.055E-02 4.479E-03

     total cpu time spent up to now is      805.2 secs

     total energy              =    -649.01827814 Ry
     estimated scf accuracy    <       0.00007846 Ry

     total magnetization       =     1.28 Bohr mag/cell
     absolute magnetization    =     1.67 Bohr mag/cell

     iteration # 29     ecut=    35.00 Ry     beta= 0.10
     Davidson diagonalization with overlap
     ethr =  3.77E-08,  avg # of iterations =  2.4

     negative rho (up, down):  1.020E-02 3.222E-03

     total cpu time spent up to now is      833.1 secs

     total energy              =    -649.01853574 Ry
     estimated scf accuracy    <       0.00005817 Ry

     total magnetization       =     1.24 Bohr mag/cell
     absolute magnetization    =     1.63 Bohr mag/cell

     iteration # 30     ecut=    35.00 Ry     beta= 0.10
     Davidson diagonalization with overlap
     ethr =  2.80E-08,  avg # of iterations =  4.3

     negative rho (up, down):  9.626E-03 2.296E-03

     total cpu time spent up to now is      869.9 secs

     total energy              =    -649.01877542 Ry
     estimated scf accuracy    <       0.00003791 Ry

     total magnetization       =     1.18 Bohr mag/cell
     absolute magnetization    =     1.54 Bohr mag/cell

     iteration # 31     ecut=    35.00 Ry     beta= 0.10
     Davidson diagonalization with overlap
     ethr =  1.82E-08,  avg # of iterations =  4.3

     negative rho (up, down):  9.291E-03 1.791E-03

     total cpu time spent up to now is      906.8 secs

     total energy              =    -649.01890737 Ry
     estimated scf accuracy    <       0.00002205 Ry

     total magnetization       =     1.15 Bohr mag/cell
     absolute magnetization    =     1.48 Bohr mag/cell

     iteration # 32     ecut=    35.00 Ry     beta= 0.10
     Davidson diagonalization with overlap
     ethr =  1.06E-08,  avg # of iterations =  5.0

     negative rho (up, down):  8.373E-03 1.634E-03

     total cpu time spent up to now is      946.4 secs

     total energy              =    -649.01914957 Ry
     estimated scf accuracy    <       0.00001263 Ry

     total magnetization       =     1.12 Bohr mag/cell
     absolute magnetization    =     1.41 Bohr mag/cell

     iteration # 33     ecut=    35.00 Ry     beta= 0.10
     Davidson diagonalization with overlap
     ethr =  6.07E-09,  avg # of iterations =  3.8

     negative rho (up, down):  7.573E-03 1.539E-03

     total cpu time spent up to now is      980.9 secs

     total energy              =    -649.01934254 Ry
     estimated scf accuracy    <       0.00001055 Ry

     total magnetization       =     1.11 Bohr mag/cell
     absolute magnetization    =     1.38 Bohr mag/cell

     iteration # 34     ecut=    35.00 Ry     beta= 0.10
     Davidson diagonalization with overlap
     ethr =  5.07E-09,  avg # of iterations =  3.7

     negative rho (up, down):  6.915E-03 1.440E-03

     total cpu time spent up to now is     1011.8 secs

     total energy              =    -649.01951592 Ry
     estimated scf accuracy    <       0.00000867 Ry

     total magnetization       =     1.09 Bohr mag/cell
     absolute magnetization    =     1.36 Bohr mag/cell

     iteration # 35     ecut=    35.00 Ry     beta= 0.10
     Davidson diagonalization with overlap
     ethr =  4.17E-09,  avg # of iterations =  2.8

     negative rho (up, down):  6.277E-03 1.353E-03

     total cpu time spent up to now is     1041.7 secs

     total energy              =    -649.01967171 Ry
     estimated scf accuracy    <       0.00000784 Ry

     total magnetization       =     1.08 Bohr mag/cell
     absolute magnetization    =     1.34 Bohr mag/cell

     iteration # 36     ecut=    35.00 Ry     beta= 0.10
     Davidson diagonalization with overlap
     ethr =  3.77E-09,  avg # of iterations =  3.5

     negative rho (up, down):  5.324E-03 1.285E-03

     total cpu time spent up to now is     1071.9 secs

     total energy              =    -649.01988515 Ry
     estimated scf accuracy    <       0.00000797 Ry

     total magnetization       =     1.08 Bohr mag/cell
     absolute magnetization    =     1.33 Bohr mag/cell

     iteration # 37     ecut=    35.00 Ry     beta= 0.10
     Davidson diagonalization with overlap
     ethr =  3.77E-09,  avg # of iterations =  2.9

     negative rho (up, down):  4.781E-03 1.220E-03

     total cpu time spent up to now is     1099.8 secs

     total energy              =    -649.02003729 Ry
     estimated scf accuracy    <       0.00001157 Ry

     total magnetization       =     1.08 Bohr mag/cell
     absolute magnetization    =     1.33 Bohr mag/cell

     iteration # 38     ecut=    35.00 Ry     beta= 0.10
     Davidson diagonalization with overlap
     ethr =  3.77E-09,  avg # of iterations =  2.1

     negative rho (up, down):  3.991E-03 1.171E-03

     total cpu time spent up to now is     1128.4 secs

     total energy              =    -649.02028801 Ry
     estimated scf accuracy    <       0.00002302 Ry

     total magnetization       =     1.07 Bohr mag/cell
     absolute magnetization    =     1.32 Bohr mag/cell

     iteration # 39     ecut=    35.00 Ry     beta= 0.10
     Davidson diagonalization with overlap
     ethr =  3.77E-09,  avg # of iterations =  2.0

     negative rho (up, down):  3.435E-03 1.117E-03

     total cpu time spent up to now is     1155.7 secs

     total energy              =    -649.02043101 Ry
     estimated scf accuracy    <       0.00002804 Ry

     total magnetization       =     1.08 Bohr mag/cell
     absolute magnetization    =     1.33 Bohr mag/cell

     iteration # 40     ecut=    35.00 Ry     beta= 0.10
     Davidson diagonalization with overlap
     ethr =  3.77E-09,  avg # of iterations =  2.0

     negative rho (up, down):  3.055E-03 1.113E-03

     total cpu time spent up to now is     1183.4 secs

     total energy              =    -649.02048995 Ry
     estimated scf accuracy    <       0.00003437 Ry

     total magnetization       =     1.07 Bohr mag/cell
     absolute magnetization    =     1.32 Bohr mag/cell

     iteration # 41     ecut=    35.00 Ry     beta= 0.10
     Davidson diagonalization with overlap
     ethr =  3.77E-09,  avg # of iterations =  2.2

     negative rho (up, down):  2.265E-03 1.054E-03

     total cpu time spent up to now is     1212.3 secs

     total energy              =    -649.02058837 Ry
     estimated scf accuracy    <       0.00003369 Ry

     total magnetization       =     1.05 Bohr mag/cell
     absolute magnetization    =     1.31 Bohr mag/cell

     iteration # 42     ecut=    35.00 Ry     beta= 0.10
     Davidson diagonalization with overlap
     ethr =  3.77E-09,  avg # of iterations =  3.8

     negative rho (up, down):  1.897E-03 1.037E-03

     total cpu time spent up to now is     1247.1 secs

     total energy              =    -649.02062914 Ry
     estimated scf accuracy    <       0.00003716 Ry

     total magnetization       =     1.08 Bohr mag/cell
     absolute magnetization    =     1.34 Bohr mag/cell

     iteration # 43     ecut=    35.00 Ry     beta= 0.10
     Davidson diagonalization with overlap
     ethr =  3.77E-09,  avg # of iterations =  2.0

     negative rho (up, down):  1.761E-03 1.030E-03

     total cpu time spent up to now is     1273.7 secs

     total energy              =    -649.02064649 Ry
     estimated scf accuracy    <       0.00003284 Ry

     total magnetization       =     1.08 Bohr mag/cell
     absolute magnetization    =     1.33 Bohr mag/cell

     iteration # 44     ecut=    35.00 Ry     beta= 0.10
     Davidson diagonalization with overlap
     ethr =  3.77E-09,  avg # of iterations =  2.0

     negative rho (up, down):  1.371E-03 1.021E-03

     total cpu time spent up to now is     1300.2 secs

     total energy              =    -649.02068378 Ry
     estimated scf accuracy    <       0.00002582 Ry

     total magnetization       =     1.07 Bohr mag/cell
     absolute magnetization    =     1.32 Bohr mag/cell

     iteration # 45     ecut=    35.00 Ry     beta= 0.10
     Davidson diagonalization with overlap
     ethr =  3.77E-09,  avg # of iterations =  2.0

     negative rho (up, down):  1.311E-03 9.883E-04

     total cpu time spent up to now is     1327.6 secs

     total energy              =    -649.02070270 Ry
     estimated scf accuracy    <       0.00002969 Ry

     total magnetization       =     1.08 Bohr mag/cell
     absolute magnetization    =     1.33 Bohr mag/cell

     iteration # 46     ecut=    35.00 Ry     beta= 0.10
     Davidson diagonalization with overlap
     ethr =  3.77E-09,  avg # of iterations =  2.0

     negative rho (up, down):  1.274E-03 9.809E-04

     total cpu time spent up to now is     1356.3 secs

     total energy              =    -649.02071574 Ry
     estimated scf accuracy    <       0.00002706 Ry

     total magnetization       =     1.09 Bohr mag/cell
     absolute magnetization    =     1.34 Bohr mag/cell

     iteration # 47     ecut=    35.00 Ry     beta= 0.10
     Davidson diagonalization with overlap
     ethr =  3.77E-09,  avg # of iterations =  2.0

     negative rho (up, down):  1.298E-03 1.287E-03

     total cpu time spent up to now is     1384.8 secs

     total energy              =    -649.02066047 Ry
     estimated scf accuracy    <       0.00002929 Ry

     total magnetization       =     1.09 Bohr mag/cell
     absolute magnetization    =     1.33 Bohr mag/cell

     iteration # 48     ecut=    35.00 Ry     beta= 0.10
     Davidson diagonalization with overlap
     ethr =  3.77E-09,  avg # of iterations =  5.0

     negative rho (up, down):  1.143E-03 1.331E-03

     total cpu time spent up to now is     1424.1 secs

     total energy              =    -649.02069079 Ry
     estimated scf accuracy    <       0.00001831 Ry

     total magnetization       =     1.08 Bohr mag/cell
     absolute magnetization    =     1.29 Bohr mag/cell

     iteration # 49     ecut=    35.00 Ry     beta= 0.10
     Davidson diagonalization with overlap
     ethr =  3.77E-09,  avg # of iterations =  2.0

     negative rho (up, down):  1.096E-03 1.180E-03

     total cpu time spent up to now is     1451.1 secs

     total energy              =    -649.02071848 Ry
     estimated scf accuracy    <       0.00001816 Ry

     total magnetization       =     1.08 Bohr mag/cell
     absolute magnetization    =     1.29 Bohr mag/cell

     iteration # 50     ecut=    35.00 Ry     beta= 0.10
     Davidson diagonalization with overlap
     ethr =  3.77E-09,  avg # of iterations =  2.0

     negative rho (up, down):  9.681E-04 1.384E-03

     total cpu time spent up to now is     1478.7 secs

     total energy              =    -649.02067701 Ry
     estimated scf accuracy    <       0.00001847 Ry

     total magnetization       =     1.09 Bohr mag/cell
     absolute magnetization    =     1.29 Bohr mag/cell

     iteration # 51     ecut=    35.00 Ry     beta= 0.10
     Davidson diagonalization with overlap
     ethr =  3.77E-09,  avg # of iterations =  4.0

     negative rho (up, down):  1.014E-03 1.425E-03

     total cpu time spent up to now is     1515.6 secs

     total energy              =    -649.02067363 Ry
     estimated scf accuracy    <       0.00001638 Ry

     total magnetization       =     1.08 Bohr mag/cell
     absolute magnetization    =     1.32 Bohr mag/cell

     iteration # 52     ecut=    35.00 Ry     beta= 0.10
     Davidson diagonalization with overlap
     ethr =  3.77E-09,  avg # of iterations =  2.0

     negative rho (up, down):  9.200E-04 9.767E-04

     total cpu time spent up to now is     1544.9 secs

     total energy              =    -649.02073489 Ry
     estimated scf accuracy    <       0.00001648 Ry

     total magnetization       =     1.09 Bohr mag/cell
     absolute magnetization    =     1.33 Bohr mag/cell

     iteration # 53     ecut=    35.00 Ry     beta= 0.10
     Davidson diagonalization with overlap
     ethr =  3.77E-09,  avg # of iterations =  3.7

     negative rho (up, down):  1.516E-03 1.722E-03

     total cpu time spent up to now is     1580.4 secs

     total energy              =    -649.02052245 Ry
     estimated scf accuracy    <       0.00001774 Ry

     total magnetization       =     1.11 Bohr mag/cell
     absolute magnetization    =     1.33 Bohr mag/cell

     iteration # 54     ecut=    35.00 Ry     beta= 0.10
     Davidson diagonalization with overlap
     ethr =  3.77E-09,  avg # of iterations =  5.0

     negative rho (up, down):  1.360E-03 1.439E-03

     total cpu time spent up to now is     1621.4 secs

     total energy              =    -649.02062278 Ry
     estimated scf accuracy    <       0.00001409 Ry

     total magnetization       =     1.10 Bohr mag/cell
     absolute magnetization    =     1.38 Bohr mag/cell

     iteration # 55     ecut=    35.00 Ry     beta= 0.10
     Davidson diagonalization with overlap
     ethr =  3.77E-09,  avg # of iterations =  2.0

     negative rho (up, down):  9.865E-04 1.237E-03

     total cpu time spent up to now is     1649.7 secs

     total energy              =    -649.02066697 Ry
     estimated scf accuracy    <       0.00001379 Ry

     total magnetization       =     1.09 Bohr mag/cell
     absolute magnetization    =     1.37 Bohr mag/cell

     iteration # 56     ecut=    35.00 Ry     beta= 0.10
     Davidson diagonalization with overlap
     ethr =  3.77E-09,  avg # of iterations =  4.9

     negative rho (up, down):  1.005E-03 1.162E-03

     total cpu time spent up to now is     1688.5 secs

     total energy              =    -649.02069440 Ry
     estimated scf accuracy    <       0.00001402 Ry

     total magnetization       =     1.04 Bohr mag/cell
     absolute magnetization    =     1.31 Bohr mag/cell

     iteration # 57     ecut=    35.00 Ry     beta= 0.10
     Davidson diagonalization with overlap
     ethr =  3.77E-09,  avg # of iterations =  2.0

     negative rho (up, down):  1.266E-03 2.069E-03

     total cpu time spent up to now is     1714.7 secs

     total energy              =    -649.02054556 Ry
     estimated scf accuracy    <       0.00001664 Ry

     total magnetization       =     1.06 Bohr mag/cell
     absolute magnetization    =     1.32 Bohr mag/cell

     iteration # 58     ecut=    35.00 Ry     beta= 0.10
     Davidson diagonalization with overlap
     ethr =  3.77E-09,  avg # of iterations =  4.2

     negative rho (up, down):  1.422E-03 2.438E-03

     total cpu time spent up to now is     1752.8 secs

     total energy              =    -649.02050958 Ry
     estimated scf accuracy    <       0.00001096 Ry

     total magnetization       =     1.01 Bohr mag/cell
     absolute magnetization    =     1.30 Bohr mag/cell

     iteration # 59     ecut=    35.00 Ry     beta= 0.10
     Davidson diagonalization with overlap
     ethr =  3.77E-09,  avg # of iterations =  2.9

     negative rho (up, down):  1.429E-03 2.234E-03

     total cpu time spent up to now is     1785.0 secs

     total energy              =    -649.02052374 Ry
     estimated scf accuracy    <       0.00000899 Ry

     total magnetization       =     1.00 Bohr mag/cell
     absolute magnetization    =     1.31 Bohr mag/cell

     iteration # 60     ecut=    35.00 Ry     beta= 0.10
     Davidson diagonalization with overlap
     ethr =  3.77E-09,  avg # of iterations =  2.0

     negative rho (up, down):  1.570E-03 2.481E-03

     total cpu time spent up to now is     1812.7 secs

     total energy              =    -649.02047135 Ry
     estimated scf accuracy    <       0.00000906 Ry

     total magnetization       =     1.00 Bohr mag/cell
     absolute magnetization    =     1.32 Bohr mag/cell

     iteration # 61     ecut=    35.00 Ry     beta= 0.10
     Davidson diagonalization with overlap
     ethr =  3.77E-09,  avg # of iterations =  3.0

     negative rho (up, down):  1.493E-03 2.271E-03

     total cpu time spent up to now is     1845.1 secs

     total energy              =    -649.02050939 Ry
     estimated scf accuracy    <       0.00000845 Ry

     total magnetization       =     0.99 Bohr mag/cell
     absolute magnetization    =     1.33 Bohr mag/cell

     iteration # 62     ecut=    35.00 Ry     beta= 0.10
     Davidson diagonalization with overlap
     ethr =  3.77E-09,  avg # of iterations =  1.5

     negative rho (up, down):  1.313E-03 1.870E-03

     total cpu time spent up to now is     1869.9 secs

     total energy              =    -649.02057084 Ry
     estimated scf accuracy    <       0.00000823 Ry

     total magnetization       =     0.99 Bohr mag/cell
     absolute magnetization    =     1.33 Bohr mag/cell

     iteration # 63     ecut=    35.00 Ry     beta= 0.10
     Davidson diagonalization with overlap
     ethr =  3.77E-09,  avg # of iterations =  2.0

     negative rho (up, down):  1.029E-03 1.277E-03

     total cpu time spent up to now is     1898.1 secs

     total energy              =    -649.02066043 Ry
     estimated scf accuracy    <       0.00000827 Ry

     total magnetization       =     0.99 Bohr mag/cell
     absolute magnetization    =     1.32 Bohr mag/cell

     iteration # 64     ecut=    35.00 Ry     beta= 0.10
     Davidson diagonalization with overlap
     ethr =  3.77E-09,  avg # of iterations =  3.9

     negative rho (up, down):  1.239E-03 1.540E-03

     total cpu time spent up to now is     1933.2 secs

     total energy              =    -649.02062608 Ry
     estimated scf accuracy    <       0.00000871 Ry

     total magnetization       =     1.00 Bohr mag/cell
     absolute magnetization    =     1.31 Bohr mag/cell

     iteration # 65     ecut=    35.00 Ry     beta= 0.10
     Davidson diagonalization with overlap
     ethr =  3.77E-09,  avg # of iterations =  3.2

     negative rho (up, down):  1.269E-03 1.503E-03

     total cpu time spent up to now is     1966.3 secs

     total energy              =    -649.02063056 Ry
     estimated scf accuracy    <       0.00000853 Ry

     total magnetization       =     1.00 Bohr mag/cell
     absolute magnetization    =     1.32 Bohr mag/cell

     iteration # 66     ecut=    35.00 Ry     beta= 0.10
     Davidson diagonalization with overlap
     ethr =  3.77E-09,  avg # of iterations =  2.0

     negative rho (up, down):  1.084E-03 1.241E-03

     total cpu time spent up to now is     1993.3 secs

     total energy              =    -649.02067499 Ry
     estimated scf accuracy    <       0.00000838 Ry

     total magnetization       =     1.01 Bohr mag/cell
     absolute magnetization    =     1.33 Bohr mag/cell

     iteration # 67     ecut=    35.00 Ry     beta= 0.10
     Davidson diagonalization with overlap
     ethr =  3.77E-09,  avg # of iterations =  2.2

     negative rho (up, down):  1.107E-03 1.201E-03

     total cpu time spent up to now is     2024.5 secs

     total energy              =    -649.02068280 Ry
     estimated scf accuracy    <       0.00000825 Ry

     total magnetization       =     1.00 Bohr mag/cell
     absolute magnetization    =     1.31 Bohr mag/cell

     iteration # 68     ecut=    35.00 Ry     beta= 0.10
     Davidson diagonalization with overlap
     ethr =  3.77E-09,  avg # of iterations =  2.0

     negative rho (up, down):  1.115E-03 1.268E-03

     total cpu time spent up to now is     2050.7 secs

     total energy              =    -649.02067329 Ry
     estimated scf accuracy    <       0.00000872 Ry

     total magnetization       =     0.99 Bohr mag/cell
     absolute magnetization    =     1.31 Bohr mag/cell

     iteration # 69     ecut=    35.00 Ry     beta= 0.10
     Davidson diagonalization with overlap
     ethr =  3.77E-09,  avg # of iterations =  2.0

     negative rho (up, down):  1.057E-03 1.258E-03

     total cpu time spent up to now is     2078.1 secs

     total energy              =    -649.02067365 Ry
     estimated scf accuracy    <       0.00000913 Ry

     total magnetization       =     1.00 Bohr mag/cell
     absolute magnetization    =     1.31 Bohr mag/cell

     iteration # 70     ecut=    35.00 Ry     beta= 0.10
     Davidson diagonalization with overlap
     ethr =  3.77E-09,  avg # of iterations =  2.0

     negative rho (up, down):  1.428E-03 1.493E-03

     total cpu time spent up to now is     2106.8 secs

     total energy              =    -649.02063127 Ry
     estimated scf accuracy    <       0.00000889 Ry

     total magnetization       =     1.00 Bohr mag/cell
     absolute magnetization    =     1.31 Bohr mag/cell

     iteration # 71     ecut=    35.00 Ry     beta= 0.10
     Davidson diagonalization with overlap
     ethr =  3.77E-09,  avg # of iterations =  3.5

     negative rho (up, down):  1.354E-03 1.458E-03

     total cpu time spent up to now is     2141.3 secs

     total energy              =    -649.02064457 Ry
     estimated scf accuracy    <       0.00000875 Ry

     total magnetization       =     0.99 Bohr mag/cell
     absolute magnetization    =     1.33 Bohr mag/cell

     iteration # 72     ecut=    35.00 Ry     beta= 0.10
     Davidson diagonalization with overlap
     ethr =  3.77E-09,  avg # of iterations =  1.4

     negative rho (up, down):  9.938E-04 1.054E-03

     total cpu time spent up to now is     2166.0 secs

     total energy              =    -649.02069049 Ry
     estimated scf accuracy    <       0.00000889 Ry

     total magnetization       =     0.99 Bohr mag/cell
     absolute magnetization    =     1.33 Bohr mag/cell

     iteration # 73     ecut=    35.00 Ry     beta= 0.10
     Davidson diagonalization with overlap
     ethr =  3.77E-09,  avg # of iterations =  4.0

     negative rho (up, down):  1.089E-03 1.127E-03

     total cpu time spent up to now is     2202.0 secs

     total energy              =    -649.02068879 Ry
     estimated scf accuracy    <       0.00000951 Ry

     total magnetization       =     1.00 Bohr mag/cell
     absolute magnetization    =     1.30 Bohr mag/cell

     iteration # 74     ecut=    35.00 Ry     beta= 0.10
     Davidson diagonalization with overlap
     ethr =  3.77E-09,  avg # of iterations =  2.0

     negative rho (up, down):  9.906E-04 1.055E-03

     total cpu time spent up to now is     2230.3 secs

     total energy              =    -649.02070252 Ry
     estimated scf accuracy    <       0.00000971 Ry

     total magnetization       =     1.00 Bohr mag/cell
     absolute magnetization    =     1.31 Bohr mag/cell

     iteration # 75     ecut=    35.00 Ry     beta= 0.10
     Davidson diagonalization with overlap
     ethr =  3.77E-09,  avg # of iterations =  2.0

     negative rho (up, down):  9.638E-04 1.010E-03

     total cpu time spent up to now is     2260.8 secs

     total energy              =    -649.02071406 Ry
     estimated scf accuracy    <       0.00000903 Ry

     total magnetization       =     1.00 Bohr mag/cell
     absolute magnetization    =     1.30 Bohr mag/cell

     iteration # 76     ecut=    35.00 Ry     beta= 0.10
     Davidson diagonalization with overlap
     ethr =  3.77E-09,  avg # of iterations =  2.0

     negative rho (up, down):  9.745E-04 1.025E-03

     total cpu time spent up to now is     2290.2 secs

     total energy              =    -649.02071096 Ry
     estimated scf accuracy    <       0.00000923 Ry

     total magnetization       =     1.00 Bohr mag/cell
     absolute magnetization    =     1.29 Bohr mag/cell

     iteration # 77     ecut=    35.00 Ry     beta= 0.10
     Davidson diagonalization with overlap
     ethr =  3.77E-09,  avg # of iterations =  2.0

     negative rho (up, down):  1.038E-03 1.107E-03

     total cpu time spent up to now is     2320.9 secs

     total energy              =    -649.02069787 Ry
     estimated scf accuracy    <       0.00000973 Ry

     total magnetization       =     1.00 Bohr mag/cell
     absolute magnetization    =     1.30 Bohr mag/cell

     iteration # 78     ecut=    35.00 Ry     beta= 0.10
     Davidson diagonalization with overlap
     ethr =  3.77E-09,  avg # of iterations =  2.0

     negative rho (up, down):  9.777E-04 1.018E-03

     total cpu time spent up to now is     2349.4 secs

     total energy              =    -649.02071098 Ry
     estimated scf accuracy    <       0.00000962 Ry

     total magnetization       =     0.99 Bohr mag/cell
     absolute magnetization    =     1.31 Bohr mag/cell

     iteration # 79     ecut=    35.00 Ry     beta= 0.10
     Davidson diagonalization with overlap
     ethr =  3.77E-09,  avg # of iterations =  2.0

     negative rho (up, down):  1.151E-03 1.309E-03

     total cpu time spent up to now is     2380.6 secs

     total energy              =    -649.02065579 Ry
     estimated scf accuracy    <       0.00001122 Ry

     total magnetization       =     1.00 Bohr mag/cell
     absolute magnetization    =     1.30 Bohr mag/cell

     iteration # 80     ecut=    35.00 Ry     beta= 0.10
     Davidson diagonalization with overlap
     ethr =  3.77E-09,  avg # of iterations =  4.0

     negative rho (up, down):  1.244E-03 1.122E-03

     total cpu time spent up to now is     2416.4 secs

     total energy              =    -649.02067737 Ry
     estimated scf accuracy    <       0.00001174 Ry

     total magnetization       =     0.97 Bohr mag/cell
     absolute magnetization    =     1.32 Bohr mag/cell

     iteration # 81     ecut=    35.00 Ry     beta= 0.10
     Davidson diagonalization with overlap
     ethr =  3.77E-09,  avg # of iterations =  2.4

     negative rho (up, down):  1.127E-03 1.055E-03

     total cpu time spent up to now is     2448.4 secs

     total energy              =    -649.02065791 Ry
     estimated scf accuracy    <       0.00001170 Ry

     total magnetization       =     0.99 Bohr mag/cell
     absolute magnetization    =     1.33 Bohr mag/cell

     iteration # 82     ecut=    35.00 Ry     beta= 0.10
     Davidson diagonalization with overlap
     ethr =  3.77E-09,  avg # of iterations =  4.0

     negative rho (up, down):  2.166E-03 2.079E-03

     total cpu time spent up to now is     2485.6 secs

     total energy              =    -649.02048474 Ry
     estimated scf accuracy    <       0.00000958 Ry

     total magnetization       =     1.01 Bohr mag/cell
     absolute magnetization    =     1.31 Bohr mag/cell

     iteration # 83     ecut=    35.00 Ry     beta= 0.10
     Davidson diagonalization with overlap
     ethr =  3.77E-09,  avg # of iterations =  5.3

     negative rho (up, down):  1.778E-03 1.700E-03

     total cpu time spent up to now is     2529.0 secs

     total energy              =    -649.02061979 Ry
     estimated scf accuracy    <       0.00000998 Ry

     total magnetization       =     0.96 Bohr mag/cell
     absolute magnetization    =     1.36 Bohr mag/cell

     iteration # 84     ecut=    35.00 Ry     beta= 0.10
     Davidson diagonalization with overlap
     ethr =  3.77E-09,  avg # of iterations =  2.2

     negative rho (up, down):  1.074E-03 1.059E-03

     total cpu time spent up to now is     2558.7 secs

     total energy              =    -649.02057262 Ry
     estimated scf accuracy    <       0.00000942 Ry

     total magnetization       =     0.96 Bohr mag/cell
     absolute magnetization    =     1.35 Bohr mag/cell

     iteration # 85     ecut=    35.00 Ry     beta= 0.10
     Davidson diagonalization with overlap
     ethr =  3.77E-09,  avg # of iterations =  5.2

     negative rho (up, down):  9.675E-04 1.004E-03

     total cpu time spent up to now is     2603.9 secs

     total energy              =    -649.02070601 Ry
     estimated scf accuracy    <       0.00001223 Ry

     total magnetization       =     0.97 Bohr mag/cell
     absolute magnetization    =     1.25 Bohr mag/cell

     iteration # 86     ecut=    35.00 Ry     beta= 0.10
     Davidson diagonalization with overlap
     ethr =  3.77E-09,  avg # of iterations =  4.0

     negative rho (up, down):  9.787E-04 1.006E-03

     total cpu time spent up to now is     2641.2 secs

     total energy              =    -649.02070280 Ry
     estimated scf accuracy    <       0.00001271 Ry

     total magnetization       =     0.98 Bohr mag/cell
     absolute magnetization    =     1.29 Bohr mag/cell

     iteration # 87     ecut=    35.00 Ry     beta= 0.10
     Davidson diagonalization with overlap
     ethr =  3.77E-09,  avg # of iterations =  3.2

     negative rho (up, down):  9.998E-04 1.080E-03

     total cpu time spent up to now is     2674.6 secs

     total energy              =    -649.02070392 Ry
     estimated scf accuracy    <       0.00001105 Ry

     total magnetization       =     1.00 Bohr mag/cell
     absolute magnetization    =     1.28 Bohr mag/cell

     iteration # 88     ecut=    35.00 Ry     beta= 0.10
     Davidson diagonalization with overlap
     ethr =  3.77E-09,  avg # of iterations =  2.9

     negative rho (up, down):  1.021E-03 1.073E-03

     total cpu time spent up to now is     2706.3 secs

     total energy              =    -649.02069213 Ry
     estimated scf accuracy    <       0.00001265 Ry

     total magnetization       =     1.00 Bohr mag/cell
     absolute magnetization    =     1.27 Bohr mag/cell

     iteration # 89     ecut=    35.00 Ry     beta= 0.10
     Davidson diagonalization with overlap
     ethr =  3.77E-09,  avg # of iterations =  2.0

     negative rho (up, down):  1.042E-03 1.115E-03

     total cpu time spent up to now is     2734.2 secs

     total energy              =    -649.02068663 Ry
     estimated scf accuracy    <       0.00001322 Ry

     total magnetization       =     1.00 Bohr mag/cell
     absolute magnetization    =     1.27 Bohr mag/cell

     iteration # 90     ecut=    35.00 Ry     beta= 0.10
     Davidson diagonalization with overlap
     ethr =  3.77E-09,  avg # of iterations =  2.0

     negative rho (up, down):  9.547E-04 9.721E-04

     total cpu time spent up to now is     2763.0 secs

     total energy              =    -649.02072878 Ry
     estimated scf accuracy    <       0.00001217 Ry

     total magnetization       =     1.01 Bohr mag/cell
     absolute magnetization    =     1.27 Bohr mag/cell

     iteration # 91     ecut=    35.00 Ry     beta= 0.10
     Davidson diagonalization with overlap
     ethr =  3.77E-09,  avg # of iterations =  2.0

     negative rho (up, down):  1.172E-03 1.202E-03

     total cpu time spent up to now is     2794.5 secs

     total energy              =    -649.02063302 Ry
     estimated scf accuracy    <       0.00001369 Ry

     total magnetization       =     1.00 Bohr mag/cell
     absolute magnetization    =     1.27 Bohr mag/cell

     iteration # 92     ecut=    35.00 Ry     beta= 0.10
     Davidson diagonalization with overlap
     ethr =  3.77E-09,  avg # of iterations =  3.0

     negative rho (up, down):  1.981E-03 1.626E-03

     total cpu time spent up to now is     2829.2 secs

     total energy              =    -649.02052397 Ry
     estimated scf accuracy    <       0.00002022 Ry

     total magnetization       =     1.00 Bohr mag/cell
     absolute magnetization    =     1.26 Bohr mag/cell

     iteration # 93     ecut=    35.00 Ry     beta= 0.10
     Davidson diagonalization with overlap
     ethr =  3.77E-09,  avg # of iterations =  5.1

     negative rho (up, down):  1.402E-03 1.315E-03

     total cpu time spent up to now is     2870.5 secs

     total energy              =    -649.02061809 Ry
     estimated scf accuracy    <       0.00000931 Ry

     total magnetization       =     0.98 Bohr mag/cell
     absolute magnetization    =     1.31 Bohr mag/cell

     iteration # 94     ecut=    35.00 Ry     beta= 0.10
     Davidson diagonalization with overlap
     ethr =  3.77E-09,  avg # of iterations =  4.0

     negative rho (up, down):  1.750E-03 1.583E-03

     total cpu time spent up to now is     2905.6 secs

     total energy              =    -649.02061879 Ry
     estimated scf accuracy    <       0.00000941 Ry

     total magnetization       =     0.99 Bohr mag/cell
     absolute magnetization    =     1.28 Bohr mag/cell

     iteration # 95     ecut=    35.00 Ry     beta= 0.10
     Davidson diagonalization with overlap
     ethr =  3.77E-09,  avg # of iterations =  4.0

     negative rho (up, down):  1.855E-03 1.795E-03

     total cpu time spent up to now is     2941.4 secs

     total energy              =    -649.02061706 Ry
     estimated scf accuracy    <       0.00000949 Ry

     total magnetization       =     0.99 Bohr mag/cell
     absolute magnetization    =     1.31 Bohr mag/cell

     iteration # 96     ecut=    35.00 Ry     beta= 0.10
     Davidson diagonalization with overlap
     ethr =  3.77E-09,  avg # of iterations =  2.7

     negative rho (up, down):  1.671E-03 1.569E-03

     total cpu time spent up to now is     2973.1 secs

     total energy              =    -649.02063941 Ry
     estimated scf accuracy    <       0.00000843 Ry

     total magnetization       =     0.98 Bohr mag/cell
     absolute magnetization    =     1.32 Bohr mag/cell

     iteration # 97     ecut=    35.00 Ry     beta= 0.10
     Davidson diagonalization with overlap
     ethr =  3.77E-09,  avg # of iterations =  2.0

     negative rho (up, down):  1.396E-03 1.234E-03

     total cpu time spent up to now is     2999.9 secs

     total energy              =    -649.02066556 Ry
     estimated scf accuracy    <       0.00000818 Ry

     total magnetization       =     0.98 Bohr mag/cell
     absolute magnetization    =     1.32 Bohr mag/cell

     iteration # 98     ecut=    35.00 Ry     beta= 0.10
     Davidson diagonalization with overlap
     ethr =  3.77E-09,  avg # of iterations =  2.7

     negative rho (up, down):  1.252E-03 1.116E-03

     total cpu time spent up to now is     3031.1 secs

     total energy              =    -649.02067261 Ry
     estimated scf accuracy    <       0.00000878 Ry

     total magnetization       =     0.98 Bohr mag/cell
     absolute magnetization    =     1.31 Bohr mag/cell

     iteration # 99     ecut=    35.00 Ry     beta= 0.10
     Davidson diagonalization with overlap
     ethr =  3.77E-09,  avg # of iterations =  3.0

     negative rho (up, down):  1.188E-03 1.095E-03

     total cpu time spent up to now is     3061.7 secs

     total energy              =    -649.02068531 Ry
     estimated scf accuracy    <       0.00000860 Ry

     total magnetization       =     0.99 Bohr mag/cell
     absolute magnetization    =     1.29 Bohr mag/cell

     iteration #100     ecut=    35.00 Ry     beta= 0.10
     Davidson diagonalization with overlap
     ethr =  3.77E-09,  avg # of iterations =  1.8

     negative rho (up, down):  1.334E-03 1.219E-03

     total cpu time spent up to now is     3087.4 secs

     total energy              =    -649.02065912 Ry
     estimated scf accuracy    <       0.00000850 Ry

     total magnetization       =     0.99 Bohr mag/cell
     absolute magnetization    =     1.29 Bohr mag/cell

     iteration #101     ecut=    35.00 Ry     beta= 0.10
     Davidson diagonalization with overlap
     ethr =  3.77E-09,  avg # of iterations =  2.0

     negative rho (up, down):  1.158E-03 1.091E-03

     total cpu time spent up to now is     3117.3 secs

     total energy              =    -649.02068373 Ry
     estimated scf accuracy    <       0.00000835 Ry

     total magnetization       =     0.98 Bohr mag/cell
     absolute magnetization    =     1.30 Bohr mag/cell

     iteration #102     ecut=    35.00 Ry     beta= 0.10
     Davidson diagonalization with overlap
     ethr =  3.77E-09,  avg # of iterations =  2.0

     negative rho (up, down):  1.140E-03 1.507E-03

     total cpu time spent up to now is     3146.5 secs

     total energy              =    -649.02063723 Ry
     estimated scf accuracy    <       0.00000811 Ry

     total magnetization       =     0.98 Bohr mag/cell
     absolute magnetization    =     1.29 Bohr mag/cell

     iteration #103     ecut=    35.00 Ry     beta= 0.10
     Davidson diagonalization with overlap
     ethr =  3.77E-09,  avg # of iterations =  5.2

     negative rho (up, down):  1.025E-03 1.049E-03

     total cpu time spent up to now is     3189.6 secs

     total energy              =    -649.02067275 Ry
     estimated scf accuracy    <       0.00001533 Ry

     total magnetization       =     1.02 Bohr mag/cell
     absolute magnetization    =     1.26 Bohr mag/cell

     iteration #104     ecut=    35.00 Ry     beta= 0.10
     Davidson diagonalization with overlap
     ethr =  3.77E-09,  avg # of iterations =  4.3

     negative rho (up, down):  1.344E-03 1.292E-03

     total cpu time spent up to now is     3228.0 secs

     total energy              =    -649.02062648 Ry
     estimated scf accuracy    <       0.00001442 Ry

     total magnetization       =     0.99 Bohr mag/cell
     absolute magnetization    =     1.26 Bohr mag/cell

     iteration #105     ecut=    35.00 Ry     beta= 0.10
     Davidson diagonalization with overlap
     ethr =  3.77E-09,  avg # of iterations =  5.0

     negative rho (up, down):  1.496E-03 1.063E-03

     total cpu time spent up to now is     3268.7 secs

     total energy              =    -649.02066447 Ry
     estimated scf accuracy    <       0.00001290 Ry

     total magnetization       =     0.97 Bohr mag/cell
     absolute magnetization    =     1.29 Bohr mag/cell

     iteration #106     ecut=    35.00 Ry     beta= 0.10
     Davidson diagonalization with overlap
     ethr =  3.77E-09,  avg # of iterations =  2.9

     negative rho (up, down):  1.762E-03 1.095E-03

     total cpu time spent up to now is     3302.2 secs

     total energy              =    -649.02064739 Ry
     estimated scf accuracy    <       0.00001724 Ry

     total magnetization       =     1.00 Bohr mag/cell
     absolute magnetization    =     1.32 Bohr mag/cell

     iteration #107     ecut=    35.00 Ry     beta= 0.10
     Davidson diagonalization with overlap
     ethr =  3.77E-09,  avg # of iterations =  2.3

     negative rho (up, down):  2.713E-03 1.868E-03

     total cpu time spent up to now is     3332.0 secs

     total energy              =    -649.02053079 Ry
     estimated scf accuracy    <       0.00001960 Ry

     total magnetization       =     1.01 Bohr mag/cell
     absolute magnetization    =     1.34 Bohr mag/cell

     iteration #108     ecut=    35.00 Ry     beta= 0.10
     Davidson diagonalization with overlap
     ethr =  3.77E-09,  avg # of iterations =  5.0

     negative rho (up, down):  2.855E-03 2.174E-03

     total cpu time spent up to now is     3372.1 secs

     total energy              =    -649.02053685 Ry
     estimated scf accuracy    <       0.00001557 Ry

     total magnetization       =     1.00 Bohr mag/cell
     absolute magnetization    =     1.38 Bohr mag/cell

     iteration #109     ecut=    35.00 Ry     beta= 0.10
     Davidson diagonalization with overlap
     ethr =  3.77E-09,  avg # of iterations =  2.8

     negative rho (up, down):  2.706E-03 2.051E-03

     total cpu time spent up to now is     3403.4 secs

     total energy              =    -649.02055086 Ry
     estimated scf accuracy    <       0.00001055 Ry

     total magnetization       =     0.99 Bohr mag/cell
     absolute magnetization    =     1.39 Bohr mag/cell

     iteration #110     ecut=    35.00 Ry     beta= 0.10
     Davidson diagonalization with overlap
     ethr =  3.77E-09,  avg # of iterations =  2.0

     negative rho (up, down):  2.780E-03 2.413E-03

     total cpu time spent up to now is     3431.6 secs

     total energy              =    -649.02052998 Ry
     estimated scf accuracy    <       0.00000985 Ry

     total magnetization       =     0.99 Bohr mag/cell
     absolute magnetization    =     1.39 Bohr mag/cell

     iteration #111     ecut=    35.00 Ry     beta= 0.10
     Davidson diagonalization with overlap
     ethr =  3.77E-09,  avg # of iterations =  2.8

     negative rho (up, down):  2.595E-03 2.608E-03

     total cpu time spent up to now is     3464.1 secs

     total energy              =    -649.02052434 Ry
     estimated scf accuracy    <       0.00000691 Ry

     total magnetization       =     0.98 Bohr mag/cell
     absolute magnetization    =     1.40 Bohr mag/cell

     iteration #112     ecut=    35.00 Ry     beta= 0.10
     Davidson diagonalization with overlap
     ethr =  3.32E-09,  avg # of iterations =  3.8

     negative rho (up, down):  2.530E-03 3.280E-03

     total cpu time spent up to now is     3498.2 secs

     total energy              =    -649.02047574 Ry
     estimated scf accuracy    <       0.00000514 Ry

     total magnetization       =     0.96 Bohr mag/cell
     absolute magnetization    =     1.39 Bohr mag/cell

     iteration #113     ecut=    35.00 Ry     beta= 0.10
     Davidson diagonalization with overlap
     ethr =  2.47E-09,  avg # of iterations =  4.8

     negative rho (up, down):  2.442E-03 3.215E-03

     total cpu time spent up to now is     3536.4 secs

     total energy              =    -649.02049632 Ry
     estimated scf accuracy    <       0.00000435 Ry

     total magnetization       =     0.93 Bohr mag/cell
     absolute magnetization    =     1.38 Bohr mag/cell

     iteration #114     ecut=    35.00 Ry     beta= 0.10
     Davidson diagonalization with overlap
     ethr =  2.09E-09,  avg # of iterations =  3.3

     negative rho (up, down):  2.139E-03 2.807E-03

     total cpu time spent up to now is     3568.4 secs

     total energy              =    -649.02053687 Ry
     estimated scf accuracy    <       0.00000327 Ry

     total magnetization       =     0.91 Bohr mag/cell
     absolute magnetization    =     1.38 Bohr mag/cell

     iteration #115     ecut=    35.00 Ry     beta= 0.10
     Davidson diagonalization with overlap
     ethr =  1.57E-09,  avg # of iterations =  2.1

     negative rho (up, down):  1.583E-03 1.887E-03

     total cpu time spent up to now is     3596.0 secs

     total energy              =    -649.02059537 Ry
     estimated scf accuracy    <       0.00000301 Ry

     total magnetization       =     0.90 Bohr mag/cell
     absolute magnetization    =     1.37 Bohr mag/cell

     iteration #116     ecut=    35.00 Ry     beta= 0.10
     Davidson diagonalization with overlap
     ethr =  1.45E-09,  avg # of iterations =  4.0

     negative rho (up, down):  1.685E-03 1.962E-03

     total cpu time spent up to now is     3632.8 secs

     total energy              =    -649.02059372 Ry
     estimated scf accuracy    <       0.00000313 Ry

     total magnetization       =     0.90 Bohr mag/cell
     absolute magnetization    =     1.36 Bohr mag/cell

     iteration #117     ecut=    35.00 Ry     beta= 0.10
     Davidson diagonalization with overlap
     ethr =  1.45E-09,  avg # of iterations =  2.5

     negative rho (up, down):  1.517E-03 1.681E-03

     total cpu time spent up to now is     3664.1 secs

     total energy              =    -649.02061279 Ry
     estimated scf accuracy    <       0.00000295 Ry

     total magnetization       =     0.90 Bohr mag/cell
     absolute magnetization    =     1.37 Bohr mag/cell

     iteration #118     ecut=    35.00 Ry     beta= 0.10
     Davidson diagonalization with overlap
     ethr =  1.42E-09,  avg # of iterations =  2.3

     negative rho (up, down):  1.337E-03 1.468E-03

     total cpu time spent up to now is     3693.8 secs

     total energy              =    -649.02062384 Ry
     estimated scf accuracy    <       0.00000258 Ry

     total magnetization       =     0.91 Bohr mag/cell
     absolute magnetization    =     1.36 Bohr mag/cell

     iteration #119     ecut=    35.00 Ry     beta= 0.10
     Davidson diagonalization with overlap
     ethr =  1.24E-09,  avg # of iterations =  3.6

     negative rho (up, down):  1.228E-03 1.344E-03

     total cpu time spent up to now is     3725.8 secs

     total energy              =    -649.02063141 Ry
     estimated scf accuracy    <       0.00000238 Ry

     total magnetization       =     0.91 Bohr mag/cell
     absolute magnetization    =     1.35 Bohr mag/cell

     iteration #120     ecut=    35.00 Ry     beta= 0.10
     Davidson diagonalization with overlap
     ethr =  1.14E-09,  avg # of iterations =  2.5

     negative rho (up, down):  1.181E-03 1.411E-03

     total cpu time spent up to now is     3756.5 secs

     total energy              =    -649.02061857 Ry
     estimated scf accuracy    <       0.00000219 Ry

     total magnetization       =     0.91 Bohr mag/cell
     absolute magnetization    =     1.34 Bohr mag/cell

     iteration #121     ecut=    35.00 Ry     beta= 0.10
     Davidson diagonalization with overlap
     ethr =  1.05E-09,  avg # of iterations =  4.0

     negative rho (up, down):  1.160E-03 1.343E-03

     total cpu time spent up to now is     3791.1 secs

     total energy              =    -649.02063217 Ry
     estimated scf accuracy    <       0.00000189 Ry

     total magnetization       =     0.90 Bohr mag/cell
     absolute magnetization    =     1.32 Bohr mag/cell

     iteration #122     ecut=    35.00 Ry     beta= 0.10
     Davidson diagonalization with overlap
     ethr =  9.10E-10,  avg # of iterations =  2.0

     negative rho (up, down):  1.153E-03 1.270E-03

     total cpu time spent up to now is     3818.1 secs

     total energy              =    -649.02063696 Ry
     estimated scf accuracy    <       0.00000176 Ry

     total magnetization       =     0.90 Bohr mag/cell
     absolute magnetization    =     1.32 Bohr mag/cell

     iteration #123     ecut=    35.00 Ry     beta= 0.10
     Davidson diagonalization with overlap
     ethr =  8.44E-10,  avg # of iterations =  2.7

     negative rho (up, down):  1.127E-03 1.224E-03

     total cpu time spent up to now is     3848.7 secs

     total energy              =    -649.02064479 Ry
     estimated scf accuracy    <       0.00000146 Ry

     total magnetization       =     0.90 Bohr mag/cell
     absolute magnetization    =     1.32 Bohr mag/cell

     iteration #124     ecut=    35.00 Ry     beta= 0.10
     Davidson diagonalization with overlap
     ethr =  7.03E-10,  avg # of iterations =  2.2

     negative rho (up, down):  1.068E-03 1.139E-03

     total cpu time spent up to now is     3877.5 secs

     total energy              =    -649.02065861 Ry
     estimated scf accuracy    <       0.00000143 Ry

     total magnetization       =     0.90 Bohr mag/cell
     absolute magnetization    =     1.31 Bohr mag/cell

     iteration #125     ecut=    35.00 Ry     beta= 0.10
     Davidson diagonalization with overlap
     ethr =  6.86E-10,  avg # of iterations =  2.2

     negative rho (up, down):  1.196E-03 1.335E-03

     total cpu time spent up to now is     3906.0 secs

     total energy              =    -649.02063602 Ry
     estimated scf accuracy    <       0.00000147 Ry

     total magnetization       =     0.90 Bohr mag/cell
     absolute magnetization    =     1.31 Bohr mag/cell

     iteration #126     ecut=    35.00 Ry     beta= 0.10
     Davidson diagonalization with overlap
     ethr =  6.86E-10,  avg # of iterations =  4.0

     negative rho (up, down):  1.066E-03 1.157E-03

     total cpu time spent up to now is     3943.5 secs

     total energy              =    -649.02065971 Ry
     estimated scf accuracy    <       0.00000165 Ry

     total magnetization       =     0.89 Bohr mag/cell
     absolute magnetization    =     1.32 Bohr mag/cell

     iteration #127     ecut=    35.00 Ry     beta= 0.10
     Davidson diagonalization with overlap
     ethr =  6.86E-10,  avg # of iterations =  3.8

     negative rho (up, down):  1.090E-03 1.172E-03

     total cpu time spent up to now is     3977.6 secs

     total energy              =    -649.02066342 Ry
     estimated scf accuracy    <       0.00000170 Ry

     total magnetization       =     0.89 Bohr mag/cell
     absolute magnetization    =     1.31 Bohr mag/cell

     iteration #128     ecut=    35.00 Ry     beta= 0.10
     Davidson diagonalization with overlap
     ethr =  6.86E-10,  avg # of iterations =  2.3

     negative rho (up, down):  1.069E-03 1.141E-03

     total cpu time spent up to now is     4008.3 secs

     total energy              =    -649.02066954 Ry
     estimated scf accuracy    <       0.00000186 Ry

     total magnetization       =     0.89 Bohr mag/cell
     absolute magnetization    =     1.32 Bohr mag/cell

     iteration #129     ecut=    35.00 Ry     beta= 0.10
     Davidson diagonalization with overlap
     ethr =  6.86E-10,  avg # of iterations =  2.0

     negative rho (up, down):  1.029E-03 1.077E-03

     total cpu time spent up to now is     4034.3 secs

     total energy              =    -649.02067975 Ry
     estimated scf accuracy    <       0.00000192 Ry

     total magnetization       =     0.89 Bohr mag/cell
     absolute magnetization    =     1.32 Bohr mag/cell

     iteration #130     ecut=    35.00 Ry     beta= 0.10
     Davidson diagonalization with overlap
     ethr =  6.86E-10,  avg # of iterations =  2.0

[...]
     1.0000   1.0000   1.0000   1.0000   1.0000   1.0000   1.0000   1.0000
     1.0000   1.0000   1.0000   1.0000   1.0000   1.0000   1.0000   1.0000
     1.0000   1.0000   1.0000   1.0000   1.0000   1.0000   1.0000   1.0000
     1.0000   1.0000   1.0000   1.0000   1.0000   1.0000   1.0000   1.0000
     1.0000   1.0000   1.0000   1.0000   1.0000   1.0000   1.0000   1.0000
     1.0000   1.0000   1.0000   1.0000   1.0000   1.0000   1.0000   1.0000
     1.0000   1.0000   1.0000   1.0000   1.0000   1.0000   1.0000   1.0000
     1.0000   1.0000   1.0000   1.0000   1.0000   1.0000   1.0000   1.0000
     1.0000   1.0000   1.0000   1.0000   1.0000   1.0000   1.0000   1.0000
     1.0000   1.0000   1.0000   1.0000   1.0000   1.0000   1.0000   0.9893
     0.3370   0.0000   0.0000   0.0000   0.0000   0.0000   0.0000   0.0000
     0.0000   0.0000   0.0000   0.0000   0.0000   0.0000   0.0000   0.0000
     0.0000   0.0000   0.0000   0.0000   0.0000

          k =-0.3333 0.4762 0.0000 ( 38347 PWs)   bands (ev):

   -88.5569 -54.2360 -54.2039 -54.0895 -14.4917 -14.3971 -14.2345 -14.1812
   -14.1573 -14.0850 -13.9485 -13.8563 -13.3130 -13.2407 -13.0520 -12.9675
   -12.6369 -12.5694 -12.3923 -12.3130 -10.9767 -10.8987 -10.7315 -10.7214
   -10.6528 -10.3935 -10.3073 -10.2211 -10.1200 -10.0470  -9.8393  -9.7390
    -9.2751  -9.0802  -8.6667  -8.5287  -8.4876  -8.2484  -8.1152  -7.7799
    -7.4486  -7.1465  -7.1207  -7.0549  -6.9553  -6.9132  -6.8538  -6.8034
    -6.4897  -6.3158  -6.2944  -6.1561  -6.0823  -5.9126  -5.8182  -5.7079
    -5.6597  -5.5753  -5.4886  -5.3810  -5.3094  -5.2041  -5.1680  -5.1052
    -5.0218  -4.9412  -4.8983  -4.7753  -4.7575  -4.6740  -4.5647  -4.5520
    -4.3803  -4.3271  -4.2315  -4.2123  -4.0616  -3.9464  -3.8724  -3.8167
    -3.6906  -3.6093  -3.5719  -3.3833  -3.3111  -3.2127  -2.9931  -2.9417
    -2.8415  -2.7242  -2.4164  -2.3651  -2.1866  -2.0672  -1.8695  -1.5904
    -1.5658  -1.3439  -1.1673  -1.1347  -0.9864  -0.7860  -0.7064  -0.5911
    -0.5632  -0.2888  -0.2190  -0.2082  -0.0218   0.1298   0.2734   0.5642
     0.6531   0.8060   0.8960   0.9822   1.0631   1.5555   1.5959   1.7734
     1.9675   2.0384   2.2082   2.2933   2.4923

     occupation numbers 
     1.0000   1.0000   1.0000   1.0000   1.0000   1.0000   1.0000   1.0000
     1.0000   1.0000   1.0000   1.0000   1.0000   1.0000   1.0000   1.0000
     1.0000   1.0000   1.0000   1.0000   1.0000   1.0000   1.0000   1.0000
     1.0000   1.0000   1.0000   1.0000   1.0000   1.0000   1.0000   1.0000
     1.0000   1.0000   1.0000   1.0000   1.0000   1.0000   1.0000   1.0000
     1.0000   1.0000   1.0000   1.0000   1.0000   1.0000   1.0000   1.0000
     1.0000   1.0000   1.0000   1.0000   1.0000   1.0000   1.0000   1.0000
     1.0000   1.0000   1.0000   1.0000   1.0000   1.0000   1.0000   1.0000
     1.0000   1.0000   1.0000   1.0000   1.0000   1.0000   1.0000   1.0000
     1.0000   1.0000   1.0000   1.0000   1.0000   1.0000   1.0000   1.0000
     1.0000   1.0000   1.0000   1.0000   1.0000   1.0000   1.0000   1.0000
     1.0000   1.0000   1.0000   1.0000   1.0000   1.0000   1.0000   1.0000
     1.0000   1.0000   1.0000   1.0000   1.0000   1.0000   1.0000   0.9961
     0.3255   0.0000   0.0000   0.0000   0.0000   0.0000   0.0000   0.0000
     0.0000   0.0000   0.0000   0.0000   0.0000   0.0000   0.0000   0.0000
     0.0000   0.0000   0.0000   0.0000   0.0000

 ------ SPIN DOWN ----------


          k = 0.0000 0.0000 0.0000 ( 38311 PWs)   bands (ev):

   -88.7571 -54.4658 -54.3428 -54.3003 -14.5630 -14.3536 -14.3494 -14.1016
   -13.8539 -13.8418 -13.6720 -13.6668 -13.6462 -13.6420 -13.4428 -13.4134
   -11.8553 -11.8330 -11.7555 -11.7228 -11.6080 -11.5989 -11.5051 -11.4510
   -10.8356 -10.2305 -10.2182  -9.8994  -9.8283  -9.5979  -9.5052  -9.5039
    -9.4854  -8.8445  -8.8226  -8.1707  -8.0330  -8.0146  -7.8376  -7.7581
    -7.7054  -7.7019  -7.4710  -7.4463  -7.3012  -6.8923  -6.8212  -6.7567
    -6.6651  -6.4989  -6.4200  -6.1183  -6.0014  -5.8000  -5.7592  -5.6058
    -5.6040  -5.3771  -5.3618  -5.3202  -5.2958  -5.2292  -5.1570  -5.1439
    -4.8598  -4.7320  -4.6543  -4.6475  -4.5848  -4.5464  -4.4930  -4.3719
    -4.3624  -4.2608  -4.1947  -4.1904  -4.1874  -3.9066  -3.8770  -3.7988
    -3.7198  -3.6196  -3.5880  -3.4239  -3.3911  -3.2627  -2.9795  -2.7960
    -2.7406  -2.6703  -2.3932  -2.0864  -1.9703  -1.8601  -1.7901  -1.6542
    -1.6076  -1.4097  -1.3527  -1.3254  -1.0932  -0.9498  -0.7751  -0.7229
    -0.5128  -0.4470  -0.4428  -0.2542  -0.1878  -0.1362   0.3191   0.4515
     0.5208   0.5401   0.6387   1.3517   1.3725   1.6803   1.9489   2.0715
     2.3987   2.5152   2.5933   2.6105   2.9940

     occupation numbers 
     1.0000   1.0000   1.0000   1.0000   1.0000   1.0000   1.0000   1.0000
     1.0000   1.0000   1.0000   1.0000   1.0000   1.0000   1.0000   1.0000
     1.0000   1.0000   1.0000   1.0000   1.0000   1.0000   1.0000   1.0000
     1.0000   1.0000   1.0000   1.0000   1.0000   1.0000   1.0000   1.0000
     1.0000   1.0000   1.0000   1.0000   1.0000   1.0000   1.0000   1.0000
     1.0000   1.0000   1.0000   1.0000   1.0000   1.0000   1.0000   1.0000
     1.0000   1.0000   1.0000   1.0000   1.0000   1.0000   1.0000   1.0000
     1.0000   1.0000   1.0000   1.0000   1.0000   1.0000   1.0000   1.0000
     1.0000   1.0000   1.0000   1.0000   1.0000   1.0000   1.0000   1.0000
     1.0000   1.0000   1.0000   1.0000   1.0000   1.0000   1.0000   1.0000
     1.0000   1.0000   1.0000   1.0000   1.0000   1.0000   1.0000   1.0000
     1.0000   1.0000   1.0000   1.0000   1.0000   1.0000   1.0000   1.0000
     1.0000   1.0000   1.0000   1.0000   1.0000   1.0000   1.0000   1.0000
     0.0004   0.0000   0.0000   0.0000   0.0000   0.0000   0.0000   0.0000
     0.0000   0.0000   0.0000   0.0000   0.0000   0.0000   0.0000   0.0000
     0.0000   0.0000   0.0000   0.0000   0.0000

          k = 0.0000 0.4762 0.0000 ( 38340 PWs)   bands (ev):

   -88.7573 -54.4672 -54.3478 -54.3004 -14.4914 -14.2880 -14.2755 -14.2189
   -14.0481 -14.0348 -14.0146 -13.7978 -13.3122 -13.1308 -13.1285 -12.9137
   -12.6358 -12.4659 -12.4626 -12.2621 -10.9797 -10.8002 -10.7899 -10.7862
   -10.6072 -10.4501 -10.2635  -9.9770  -9.9502  -9.8729  -9.7716  -9.6802
    -9.6130  -9.5622  -8.5726  -8.2816  -8.1741  -8.0375  -7.9436  -7.8263
    -7.4905  -7.4270  -7.3142  -7.1633  -7.1058  -6.9654  -6.9587  -6.5753
    -6.2920  -6.1738  -6.1563  -6.0843  -6.0783  -5.8698  -5.8295  -5.7047
    -5.6370  -5.5573  -5.4563  -5.3681  -5.3164  -5.2412  -5.1036  -5.0924
    -4.9455  -4.8730  -4.7837  -4.7626  -4.7393  -4.6137  -4.5756  -4.5480
    -4.4955  -4.4619  -4.1869  -4.1391  -3.9867  -3.8879  -3.8027  -3.7143
    -3.6640  -3.5862  -3.5195  -3.4583  -3.4228  -3.1721  -2.9457  -2.9067
    -2.7533  -2.5373  -2.5026  -2.4308  -2.1975  -2.1503  -1.6681  -1.6428
    -1.5170  -1.4586  -1.3078  -1.0830  -0.8239  -0.8176  -0.7696  -0.4955
    -0.2812  -0.2311  -0.0558   0.0010   0.0779   0.2001   0.2089   0.3206
     0.4401   0.6673   0.8130   0.8762   0.9742   1.1089   1.6158   2.1042
     2.3326   2.3782   2.5198   2.6012   2.6118

     occupation numbers 
     1.0000   1.0000   1.0000   1.0000   1.0000   1.0000   1.0000   1.0000
     1.0000   1.0000   1.0000   1.0000   1.0000   1.0000   1.0000   1.0000
     1.0000   1.0000   1.0000   1.0000   1.0000   1.0000   1.0000   1.0000
     1.0000   1.0000   1.0000   1.0000   1.0000   1.0000   1.0000   1.0000
     1.0000   1.0000   1.0000   1.0000   1.0000   1.0000   1.0000   1.0000
     1.0000   1.0000   1.0000   1.0000   1.0000   1.0000   1.0000   1.0000
     1.0000   1.0000   1.0000   1.0000   1.0000   1.0000   1.0000   1.0000
     1.0000   1.0000   1.0000   1.0000   1.0000   1.0000   1.0000   1.0000
     1.0000   1.0000   1.0000   1.0000   1.0000   1.0000   1.0000   1.0000
     1.0000   1.0000   1.0000   1.0000   1.0000   1.0000   1.0000   1.0000
     1.0000   1.0000   1.0000   1.0000   1.0000   1.0000   1.0000   1.0000
     1.0000   1.0000   1.0000   1.0000   1.0000   1.0000   1.0000   1.0000
     1.0000   1.0000   1.0000   1.0000   1.0000   1.0000   1.0000   0.0000
     0.0000   0.0000   0.0000   0.0000   0.0000   0.0000   0.0000   0.0000
     0.0000   0.0000   0.0000   0.0000   0.0000   0.0000   0.0000   0.0000
     0.0000   0.0000   0.0000   0.0000   0.0000

          k = 0.3333 0.0000 0.0000 ( 38376 PWs)   bands (ev):

   -88.7576 -54.4692 -54.3508 -54.3034 -14.5455 -14.4458 -14.2399 -14.1373
   -13.8343 -13.8242 -13.7591 -13.7351 -13.5665 -13.5405 -13.4742 -13.4462
   -11.8402 -11.8238 -11.7910 -11.7400 -11.5831 -11.5605 -11.5247 -11.4670
   -10.7497 -10.3539 -10.1517 -10.0806  -9.8693  -9.8364  -9.3133  -9.2034
    -9.1167  -8.9444  -8.9255  -8.5586  -8.1423  -7.9970  -7.9478  -7.8857
    -7.5405  -7.5100  -7.3455  -7.2493  -7.1627  -7.0591  -6.9459  -6.9119
    -6.8407  -6.2913  -6.1557  -5.9648  -5.8187  -5.7770  -5.7437  -5.7324
    -5.6054  -5.5466  -5.4824  -5.4733  -5.4294  -5.3603  -5.2129  -5.0560
    -5.0092  -4.7830  -4.6899  -4.6210  -4.5497  -4.4535  -4.4055  -4.3944
    -4.3440  -4.1580  -4.0227  -3.9953  -3.9654  -3.9472  -3.8866  -3.7488
    -3.7222  -3.7032  -3.6810  -3.4619  -3.4194  -3.3622  -3.1972  -3.1088
    -2.6304  -2.3921  -2.3153  -2.0007  -1.9484  -1.8535  -1.8011  -1.6924
    -1.6005  -1.4546  -1.3456  -1.3035  -1.0356  -0.9295  -0.7973  -0.7080
    -0.5805  -0.5064  -0.4598  -0.3849  -0.3317  -0.1884  -0.1339   0.4615
     0.6575   0.8627   1.3709   1.4185   1.5673   1.9286   1.9683   2.0665
     2.1452   2.3575   2.4479   2.4730   2.5101

     occupation numbers 
     1.0000   1.0000   1.0000   1.0000   1.0000   1.0000   1.0000   1.0000
     1.0000   1.0000   1.0000   1.0000   1.0000   1.0000   1.0000   1.0000
     1.0000   1.0000   1.0000   1.0000   1.0000   1.0000   1.0000   1.0000
     1.0000   1.0000   1.0000   1.0000   1.0000   1.0000   1.0000   1.0000
     1.0000   1.0000   1.0000   1.0000   1.0000   1.0000   1.0000   1.0000
     1.0000   1.0000   1.0000   1.0000   1.0000   1.0000   1.0000   1.0000
     1.0000   1.0000   1.0000   1.0000   1.0000   1.0000   1.0000   1.0000
     1.0000   1.0000   1.0000   1.0000   1.0000   1.0000   1.0000   1.0000
     1.0000   1.0000   1.0000   1.0000   1.0000   1.0000   1.0000   1.0000
     1.0000   1.0000   1.0000   1.0000   1.0000   1.0000   1.0000   1.0000
     1.0000   1.0000   1.0000   1.0000   1.0000   1.0000   1.0000   1.0000
     1.0000   1.0000   1.0000   1.0000   1.0000   1.0000   1.0000   1.0000
     1.0000   1.0000   1.0000   1.0000   1.0000   1.0000   1.0000   1.0000
     0.7796   0.0001   0.0000   0.0000   0.0000   0.0000   0.0000   0.0000
     0.0000   0.0000   0.0000   0.0000   0.0000   0.0000   0.0000   0.0000
     0.0000   0.0000   0.0000   0.0000   0.0000

          k = 0.3333 0.4762 0.0000 ( 38347 PWs)   bands (ev):

   -88.7573 -54.4694 -54.3463 -54.3011 -14.4751 -14.3707 -14.2138 -14.1613
   -14.1311 -14.0599 -13.9268 -13.8318 -13.2945 -13.2157 -13.0317 -12.9438
   -12.6189 -12.5452 -12.3725 -12.2903 -10.9596 -10.8761 -10.7116 -10.7044
   -10.6314 -10.3649 -10.2838 -10.1933 -10.0955 -10.0167  -9.8204  -9.7183
    -9.2547  -9.0524  -8.6496  -8.5098  -8.4620  -8.2273  -8.0969  -7.7571
    -7.4334  -7.1400  -7.1066  -7.0401  -6.9396  -6.8996  -6.8364  -6.7840
    -6.4836  -6.3009  -6.2806  -6.1398  -6.0670  -5.8998  -5.8016  -5.6973
    -5.6504  -5.5615  -5.4717  -5.3256  -5.2881  -5.1788  -5.1371  -5.0784
    -4.9732  -4.9142  -4.8641  -4.7529  -4.7386  -4.6278  -4.5415  -4.5174
    -4.3617  -4.2852  -4.2115  -4.1939  -4.0451  -3.9228  -3.8442  -3.8030
    -3.6416  -3.5891  -3.5539  -3.3652  -3.3028  -3.1723  -2.9559  -2.9045
    -2.8245  -2.6688  -2.4363  -2.3596  -2.1793  -2.0534  -1.8408  -1.5972
    -1.5820  -1.2999  -1.2226  -1.1118  -1.0144  -0.7443  -0.6840  -0.5457
    -0.5242  -0.2670  -0.2062  -0.1865  -0.0482   0.1725   0.2616   0.6083
     0.6843   0.8431   0.9262   1.0049   1.0903   1.5899   1.6411   1.8152
     2.0208   2.0936   2.2223   2.3407   2.5344

     occupation numbers 
     1.0000   1.0000   1.0000   1.0000   1.0000   1.0000   1.0000   1.0000
     1.0000   1.0000   1.0000   1.0000   1.0000   1.0000   1.0000   1.0000
     1.0000   1.0000   1.0000   1.0000   1.0000   1.0000   1.0000   1.0000
     1.0000   1.0000   1.0000   1.0000   1.0000   1.0000   1.0000   1.0000
     1.0000   1.0000   1.0000   1.0000   1.0000   1.0000   1.0000   1.0000
     1.0000   1.0000   1.0000   1.0000   1.0000   1.0000   1.0000   1.0000
     1.0000   1.0000   1.0000   1.0000   1.0000   1.0000   1.0000   1.0000
     1.0000   1.0000   1.0000   1.0000   1.0000   1.0000   1.0000   1.0000
     1.0000   1.0000   1.0000   1.0000   1.0000   1.0000   1.0000   1.0000
     1.0000   1.0000   1.0000   1.0000   1.0000   1.0000   1.0000   1.0000
     1.0000   1.0000   1.0000   1.0000   1.0000   1.0000   1.0000   1.0000
     1.0000   1.0000   1.0000   1.0000   1.0000   1.0000   1.0000   1.0000
     1.0000   1.0000   1.0000   1.0000   1.0000   1.0000   1.0000   0.0658
     0.0032   0.0000   0.0000   0.0000   0.0000   0.0000   0.0000   0.0000
     0.0000   0.0000   0.0000   0.0000   0.0000   0.0000   0.0000   0.0000
     0.0000   0.0000   0.0000   0.0000   0.0000

          k =-0.3333 0.4762 0.0000 ( 38347 PWs)   bands (ev):

   -88.7573 -54.4694 -54.3463 -54.3011 -14.4751 -14.3707 -14.2139 -14.1614
   -14.1309 -14.0600 -13.9268 -13.8317 -13.2945 -13.2157 -13.0317 -12.9438
   -12.6189 -12.5452 -12.3725 -12.2903 -10.9596 -10.8761 -10.7118 -10.7042
   -10.6314 -10.3647 -10.2840 -10.1934 -10.0955 -10.0166  -9.8203  -9.7184
    -9.2547  -9.0524  -8.6494  -8.5099  -8.4623  -8.2267  -8.0969  -7.7574
    -7.4337  -7.1396  -7.1074  -7.0400  -6.9396  -6.8993  -6.8358  -6.7836
    -6.4840  -6.3013  -6.2809  -6.1399  -6.0668  -5.8999  -5.8013  -5.6967
    -5.6507  -5.5614  -5.4718  -5.3257  -5.2884  -5.1789  -5.1375  -5.0787
    -4.9731  -4.9135  -4.8643  -4.7529  -4.7383  -4.6278  -4.5415  -4.5174
    -4.3627  -4.2849  -4.2113  -4.1935  -4.0448  -3.9231  -3.8447  -3.8029
    -3.6415  -3.5889  -3.5535  -3.3656  -3.3027  -3.1725  -2.9558  -2.9048
    -2.8240  -2.6687  -2.4363  -2.3597  -2.1798  -2.0531  -1.8406  -1.5974
    -1.5816  -1.3008  -1.2218  -1.1115  -1.0145  -0.7447  -0.6839  -0.5471
    -0.5232  -0.2664  -0.2071  -0.1868  -0.0469   0.1727   0.2614   0.6080
     0.6837   0.8430   0.9270   1.0025   1.0929   1.5881   1.6417   1.8168
     2.0202   2.0934   2.2222   2.3404   2.5348

     occupation numbers 
     1.0000   1.0000   1.0000   1.0000   1.0000   1.0000   1.0000   1.0000
     1.0000   1.0000   1.0000   1.0000   1.0000   1.0000   1.0000   1.0000
     1.0000   1.0000   1.0000   1.0000   1.0000   1.0000   1.0000   1.0000
     1.0000   1.0000   1.0000   1.0000   1.0000   1.0000   1.0000   1.0000
     1.0000   1.0000   1.0000   1.0000   1.0000   1.0000   1.0000   1.0000
     1.0000   1.0000   1.0000   1.0000   1.0000   1.0000   1.0000   1.0000
     1.0000   1.0000   1.0000   1.0000   1.0000   1.0000   1.0000   1.0000
     1.0000   1.0000   1.0000   1.0000   1.0000   1.0000   1.0000   1.0000
     1.0000   1.0000   1.0000   1.0000   1.0000   1.0000   1.0000   1.0000
     1.0000   1.0000   1.0000   1.0000   1.0000   1.0000   1.0000   1.0000
     1.0000   1.0000   1.0000   1.0000   1.0000   1.0000   1.0000   1.0000
     1.0000   1.0000   1.0000   1.0000   1.0000   1.0000   1.0000   1.0000
     1.0000   1.0000   1.0000   1.0000   1.0000   1.0000   1.0000   0.0764
     0.0027   0.0000   0.0000   0.0000   0.0000   0.0000   0.0000   0.0000
     0.0000   0.0000   0.0000   0.0000   0.0000   0.0000   0.0000   0.0000
     0.0000   0.0000   0.0000   0.0000   0.0000

     the Fermi energy is    -0.5664 ev

!    total energy              =    -649.02070583 Ry
     estimated scf accuracy    <       0.00000100 Ry
     smearing contrib. (-TS)   =      -0.00016877 Ry
     internal energy E=F+TS    =    -649.02053706 Ry

     The total energy is F=E-TS. E is the sum of the following terms:
     one-electron contribution =   -1407.18785110 Ry
     hartree contribution      =     746.08707740 Ry
     xc contribution           =    -214.31820556 Ry
     ewald contribution        =     226.39844220 Ry

     total magnetization       =     0.92 Bohr mag/cell
     absolute magnetization    =     1.34 Bohr mag/cell

     convergence has been achieved in 203 iterations

     Writing output data file ./X3_Fe_sp.save/
 
     init_run     :     20.01s CPU     22.86s WALL (       1 calls)
     electrons    :   5777.77s CPU   6522.71s WALL (       1 calls)

     Called by init_run:
     wfcinit      :     16.25s CPU     18.91s WALL (       1 calls)
     wfcinit:atom :      0.08s CPU      0.13s WALL (      10 calls)
     wfcinit:wfcr :     15.63s CPU     18.20s WALL (      10 calls)
     potinit      :      1.04s CPU      1.08s WALL (       1 calls)
     hinit0       :      2.08s CPU      2.14s WALL (       1 calls)

     Called by electrons:
     c_bands      :   4871.16s CPU   5467.18s WALL (     203 calls)
     sum_band     :    729.54s CPU    850.18s WALL (     203 calls)
     v_of_rho     :     60.16s CPU     67.79s WALL (     204 calls)
     v_h          :      1.51s CPU      1.97s WALL (     204 calls)
     v_xc         :     58.66s CPU     65.82s WALL (     204 calls)
     newd         :    101.25s CPU    118.03s WALL (     204 calls)
     mix_rho      :     11.07s CPU     13.69s WALL (     203 calls)

     Called by c_bands:
     init_us_2    :     45.51s CPU     45.73s WALL (    4070 calls)
     cegterg      :   4650.72s CPU   5245.19s WALL (    2030 calls)

     Called by sum_band:
     sum_band:wei :      0.28s CPU      0.29s WALL (     203 calls)
     sum_band:loo :    554.03s CPU    655.65s WALL (     203 calls)
     sum_band:buf :      5.91s CPU      5.93s WALL (    2030 calls)
     sum_band:ini :     22.73s CPU     22.81s WALL (    2030 calls)
     sum_band:cal :    228.93s CPU    230.24s WALL (    2030 calls)
     sum_band:bec :      1.03s CPU      1.13s WALL (    2030 calls)
     addusdens    :    170.74s CPU    188.95s WALL (     203 calls)
     addusd:skk   :      9.44s CPU     12.75s WALL (     406 calls)
     addusd:dgemm :     61.54s CPU     74.01s WALL (     812 calls)
     addusd:qvan2 :     94.83s CPU     95.04s WALL (     812 calls)

     Called by *egterg:
     cdiaghg      :    172.22s CPU    186.42s WALL (    8076 calls)
     cegterg:over :    336.93s CPU    344.41s WALL (    6046 calls)
     cegterg:upda :    227.37s CPU    240.48s WALL (    6046 calls)
     cegterg:last :    487.34s CPU    496.61s WALL (    4206 calls)
     cdiaghg:chol :      9.45s CPU      9.47s WALL (    8076 calls)
     cdiaghg:inve :      1.79s CPU      1.80s WALL (    8076 calls)
     cdiaghg:para :     31.64s CPU     41.02s WALL (   16152 calls)
     h_psi        :   2674.79s CPU   3203.79s WALL (    8086 calls)
     s_psi        :    636.14s CPU    645.30s WALL (    8086 calls)
     g_psi        :     12.00s CPU     12.06s WALL (    6046 calls)

     Called by h_psi:
     h_psi:calbec :    599.81s CPU    604.92s WALL (    8086 calls)
     vloc_psi     :   1427.29s CPU   1935.50s WALL (    8086 calls)
     add_vuspsi   :    638.42s CPU    647.00s WALL (    8086 calls)

     General routines
     calbec       :    828.72s CPU    835.14s WALL (   10116 calls)
     fft          :     38.45s CPU     43.08s WALL (    5094 calls)
     ffts         :      1.78s CPU      2.16s WALL (     814 calls)
     fftw         :   1526.20s CPU   2134.90s WALL ( 1541562 calls)
     interpolate  :      3.69s CPU      4.74s WALL (     408 calls)
 
     Parallel routines
     fft_scatt_xy :    200.55s CPU    348.64s WALL ( 1547470 calls)
     fft_scatt_yz :    393.89s CPU    478.52s WALL ( 1547470 calls)
 
     PWSCF        :      1h36m CPU      1h49m WALL

 
   This run was terminated on:  22:19:12   1Nov2021            

=------------------------------------------------------------------------------=
   JOB DONE.
=------------------------------------------------------------------------------=
