
     Program PWSCF v.6.7MaX starts on 30Oct2021 at 17:36:55 

     This program is part of the open-source Quantum ESPRESSO suite
     for quantum simulation of materials; please cite
         "P. Giannozzi et al., J. Phys.:Condens. Matter 21 395502 (2009);
         "P. Giannozzi et al., J. Phys.:Condens. Matter 29 465901 (2017);
          URL http://www.quantum-espresso.org", 
     in publications or presentations arising from this work. More details at
     http://www.quantum-espresso.org/quote

     Parallel version (MPI), running on     4 processors

     MPI processes distributed on     1 nodes
     R & G space division:  proc/nbgrp/npool/nimage =       4
     Waiting for input...
     Reading input from standard input

     Current dimensions of program PWSCF are:
     Max number of different atomic species (ntypx) = 10
     Max number of k-points (npk) =  40000
     Max angular momentum in pseudopotentials (lmaxx) =  3
     file B.pbe-n-rrkjus_psl.1.0.0.UPF: wavefunction(s)  2S renormalized

     gamma-point specific algorithms are used

     Subspace diagonalization in iterative solution of the eigenvalue problem:
     one sub-group per band group will be used
     scalapack distributed-memory algorithm (size of sub-group:  2*  2 procs)

 
     Parallelization info
     --------------------
     sticks:   dense  smooth     PW     G-vecs:    dense   smooth      PW
     Min        3320    1940    482               172242    76751    9577
     Max        3323    1942    486               172244    76754    9578
     Sum       13287    7765   1939               688971   307011   38311
 


     bravais-lattice index     =            8
     lattice parameter (alat)  =      31.5316  a.u.
     unit-cell volume          =   10973.0992 (a.u.)^3
     number of atoms/cell      =           65
     number of atomic types    =            2
     number of electrons       =       208.00
     number of Kohn-Sham states=          125
     kinetic-energy cutoff     =      35.0000  Ry
     charge density cutoff     =     240.0000  Ry
     scf convergence threshold =      1.0E-04
     mixing beta               =       0.1000
     number of iterations used =            8  plain     mixing
     energy convergence thresh.=      1.0E-04
     force convergence thresh. =      1.0E-03
     Exchange-correlation= PBE
                           (   1   4   3   4   0   0   0)
     nstep                     =           50


     celldm(1)=  31.531562  celldm(2)=   0.700040  celldm(3)=   0.500000
     celldm(4)=   0.000000  celldm(5)=   0.000000  celldm(6)=   0.000000

     crystal axes: (cart. coord. in units of alat)
               a(1) = (   1.000000   0.000000   0.000000 )  
               a(2) = (   0.000000   0.700040   0.000000 )  
               a(3) = (   0.000000   0.000000   0.500000 )  

     reciprocal axes: (cart. coord. in units 2 pi/alat)
               b(1) = (  1.000000  0.000000  0.000000 )  
               b(2) = (  0.000000  1.428490  0.000000 )  
               b(3) = (  0.000000  0.000000  2.000000 )  


     PseudoPot. # 1 for B  read from file:
     ./B.pbe-n-rrkjus_psl.1.0.0.UPF
     MD5 check sum: 21bc42b8719306ef1fe0545c7dabf1c6
     Pseudo is Ultrasoft + core correction, Zval =  3.0
     Generated using &quot;atomic&quot; code by A. Dal Corso  v.6.3MaX
     Using radial grid of 1059 points,  4 beta functions with: 
                l(1) =   0
                l(2) =   0
                l(3) =   1
                l(4) =   1
     Q(r) pseudized with 0 coefficients 


     PseudoPot. # 2 for Fe read from file:
     ./Fe.pbe-spn-rrkjus_psl.1.0.0.UPF
     MD5 check sum: 72ea77fed8e64ab3a2ccf2804dfc1862
     Pseudo is Ultrasoft + core correction, Zval = 16.0
     Generated using &quot;atomic&quot; code by A. Dal Corso  v.6.3
     Using radial grid of 1191 points,  6 beta functions with: 
                l(1) =   0
                l(2) =   0
                l(3) =   1
                l(4) =   1
                l(5) =   2
                l(6) =   2
     Q(r) pseudized with 0 coefficients 


     atomic species   valence    mass     pseudopotential
        B              3.00    10.81100     B ( 1.00)
        Fe            16.00    55.84500     Fe( 1.00)

     No symmetry found



   Cartesian axes

     site n.     atom                  positions (alat units)
         1           B   tau(   1) = (   0.6000000   0.5250300   0.2500000  )
         2           B   tau(   2) = (   0.7000000   0.5250300   0.2500000  )
         3           B   tau(   3) = (   0.8000000   0.5250300   0.2500000  )
         4           B   tau(   4) = (   0.9000000   0.5250300   0.2500000  )
         5           B   tau(   5) = (   0.5500000   0.6125350   0.2500000  )
         6           B   tau(   6) = (   0.6500000   0.6125350   0.2500000  )
         7           B   tau(   7) = (   0.8500000   0.6125350   0.2500000  )
         8           B   tau(   8) = (   0.9500000   0.6125350   0.2500000  )
         9           B   tau(   9) = (   0.6000000   0.0000000   0.2500000  )
        10           B   tau(  10) = (   0.7000000   0.0000000   0.2500000  )
        11           B   tau(  11) = (   0.8000000   0.0000000   0.2500000  )
        12           B   tau(  12) = (   0.9000000   0.0000000   0.2500000  )
        13           B   tau(  13) = (   0.5500000   0.0875050   0.2500000  )
        14           B   tau(  14) = (   0.6500000   0.0875050   0.2500000  )
        15           B   tau(  15) = (   0.8500000   0.0875050   0.2500000  )
        16           B   tau(  16) = (   0.9500000   0.0875050   0.2500000  )
        17           B   tau(  17) = (   0.6000000   0.1750100   0.2500000  )
        18           B   tau(  18) = (   0.7000000   0.1750100   0.2500000  )
        19           B   tau(  19) = (   0.8000000   0.1750100   0.2500000  )
        20           B   tau(  20) = (   0.9000000   0.1750100   0.2500000  )
        21           B   tau(  21) = (   0.5500000   0.2625150   0.2500000  )
        22           B   tau(  22) = (   0.6500000   0.2625150   0.2500000  )
        23           B   tau(  23) = (   0.8500000   0.2625150   0.2500000  )
        24           B   tau(  24) = (   0.9500000   0.2625150   0.2500000  )
        25           B   tau(  25) = (   0.6000000   0.3500200   0.2500000  )
        26           B   tau(  26) = (   0.7000000   0.3500200   0.2500000  )
        27           B   tau(  27) = (   0.8000000   0.3500200   0.2500000  )
        28           B   tau(  28) = (   0.9000000   0.3500200   0.2500000  )
        29           B   tau(  29) = (   0.5500000   0.4375250   0.2500000  )
        30           B   tau(  30) = (   0.6500000   0.4375250   0.2500000  )
        31           B   tau(  31) = (   0.8500000   0.4375250   0.2500000  )
        32           B   tau(  32) = (   0.9500000   0.4375250   0.2500000  )
        33           B   tau(  33) = (   0.1000000   0.5250300   0.2500000  )
        34           B   tau(  34) = (   0.2000000   0.5250300   0.2500000  )
        35           B   tau(  35) = (   0.3000000   0.5250300   0.2500000  )
        36           B   tau(  36) = (   0.4000000   0.5250300   0.2500000  )
        37           B   tau(  37) = (   0.0500000   0.6125350   0.2500000  )
        38           B   tau(  38) = (   0.1500000   0.6125350   0.2500000  )
        39           B   tau(  39) = (   0.3500000   0.6125350   0.2500000  )
        40           B   tau(  40) = (   0.4500000   0.6125350   0.2500000  )
        41           B   tau(  41) = (   0.1000000   0.0000000   0.2500000  )
        42           B   tau(  42) = (   0.2000000   0.0000000   0.2500000  )
        43           B   tau(  43) = (   0.3000000   0.0000000   0.2500000  )
        44           B   tau(  44) = (   0.4000000   0.0000000   0.2500000  )
        45           B   tau(  45) = (   0.0500000   0.0875050   0.2500000  )
        46           B   tau(  46) = (   0.1500000   0.0875050   0.2500000  )
        47           B   tau(  47) = (   0.3500000   0.0875050   0.2500000  )
        48           B   tau(  48) = (   0.4500000   0.0875050   0.2500000  )
        49           B   tau(  49) = (   0.1000000   0.1750100   0.2500000  )
        50           B   tau(  50) = (   0.2000000   0.1750100   0.2500000  )
        51           B   tau(  51) = (   0.3000000   0.1750100   0.2500000  )
        52           B   tau(  52) = (   0.4000000   0.1750100   0.2500000  )
        53           B   tau(  53) = (   0.0500000   0.2625150   0.2500000  )
        54           B   tau(  54) = (   0.1500000   0.2625150   0.2500000  )
        55           B   tau(  55) = (   0.3500000   0.2625150   0.2500000  )
        56           B   tau(  56) = (   0.4500000   0.2625150   0.2500000  )
        57           B   tau(  57) = (   0.1000000   0.3500200   0.2500000  )
        58           B   tau(  58) = (   0.2000000   0.3500200   0.2500000  )
        59           B   tau(  59) = (   0.3000000   0.3500200   0.2500000  )
        60           B   tau(  60) = (   0.4000000   0.3500200   0.2500000  )
        61           B   tau(  61) = (   0.0500000   0.4375250   0.2500000  )
        62           B   tau(  62) = (   0.1500000   0.4375250   0.2500000  )
        63           B   tau(  63) = (   0.3500000   0.4375250   0.2500000  )
        64           B   tau(  64) = (   0.4500000   0.4375250   0.2500000  )
        65           Fe  tau(  65) = (   0.4966766   0.3635809   0.2867308  )

     number of k points=     1  Marzari-Vanderbilt smearing, width (Ry)=  0.0010
                       cart. coord. in units 2pi/alat
        k(    1) = (   0.0000000   0.0000000   0.0000000), wk =   2.0000000

     Dense  grid:   344486 G-vectors     FFT dimensions: ( 160, 120,  80)

     Smooth grid:   153506 G-vectors     FFT dimensions: ( 120,  90,  60)

     Estimated max dynamical RAM per process >     609.88 MB

     Estimated total dynamical RAM >       2.38 GB

     Check: negative core charge=   -0.000002

     Initial potential from superposition of free atoms

     starting charge  207.98149, renormalised to  208.00000
     Starting wfcs are  266 randomized atomic wfcs

     total cpu time spent up to now is        7.8 secs

     Self-consistent Calculation

     iteration #  1     ecut=    35.00 Ry     beta= 0.10
     Davidson diagonalization with overlap
     ethr =  1.00E-02,  avg # of iterations =  2.0

     total cpu time spent up to now is       13.5 secs

     total energy              =    -650.85771036 Ry
     estimated scf accuracy    <       7.85342082 Ry

     iteration #  2     ecut=    35.00 Ry     beta= 0.10
     Davidson diagonalization with overlap
     ethr =  3.78E-03,  avg # of iterations =  1.0

     negative rho (up, down):  7.638E-05 0.000E+00

     total cpu time spent up to now is       18.2 secs

     total energy              =    -650.43066493 Ry
     estimated scf accuracy    <       7.13929487 Ry

     iteration #  3     ecut=    35.00 Ry     beta= 0.10
     Davidson diagonalization with overlap
     ethr =  3.43E-03,  avg # of iterations =  1.0

     negative rho (up, down):  1.039E-01 0.000E+00

     total cpu time spent up to now is       22.7 secs

     total energy              =    -647.90707812 Ry
     estimated scf accuracy    <       5.23308412 Ry

     iteration #  4     ecut=    35.00 Ry     beta= 0.10
     Davidson diagonalization with overlap
     ethr =  2.52E-03,  avg # of iterations =  2.0

     negative rho (up, down):  8.489E-02 0.000E+00

     total cpu time spent up to now is       27.9 secs

     total energy              =    -648.67440942 Ry
     estimated scf accuracy    <       0.66339700 Ry

     iteration #  5     ecut=    35.00 Ry     beta= 0.10
     Davidson diagonalization with overlap
     ethr =  3.19E-04,  avg # of iterations =  2.0

     negative rho (up, down):  6.864E-02 0.000E+00

     total cpu time spent up to now is       32.8 secs

     total energy              =    -648.65812905 Ry
     estimated scf accuracy    <       0.27753438 Ry

     iteration #  6     ecut=    35.00 Ry     beta= 0.10
     Davidson diagonalization with overlap
     ethr =  1.33E-04,  avg # of iterations =  2.0

     negative rho (up, down):  8.965E-02 0.000E+00

     total cpu time spent up to now is       38.1 secs

     total energy              =    -648.65397889 Ry
     estimated scf accuracy    <       0.13026359 Ry

     iteration #  7     ecut=    35.00 Ry     beta= 0.10
     Davidson diagonalization with overlap
     ethr =  6.26E-05,  avg # of iterations = 11.0

     negative rho (up, down):  8.731E-02 0.000E+00

     total cpu time spent up to now is       44.3 secs

     total energy              =    -648.66794324 Ry
     estimated scf accuracy    <       0.05533059 Ry

     iteration #  8     ecut=    35.00 Ry     beta= 0.10
     Davidson diagonalization with overlap
     ethr =  2.66E-05,  avg # of iterations =  7.0

     negative rho (up, down):  8.793E-02 0.000E+00

     total cpu time spent up to now is       49.5 secs

     total energy              =    -648.67271094 Ry
     estimated scf accuracy    <       0.03474337 Ry

     iteration #  9     ecut=    35.00 Ry     beta= 0.10
     Davidson diagonalization with overlap
     ethr =  1.67E-05,  avg # of iterations =  1.0

     negative rho (up, down):  8.661E-02 0.000E+00

     total cpu time spent up to now is       54.7 secs

     total energy              =    -648.67693995 Ry
     estimated scf accuracy    <       0.02079322 Ry

     iteration # 10     ecut=    35.00 Ry     beta= 0.10
     Davidson diagonalization with overlap
     ethr =  1.00E-05,  avg # of iterations =  1.0

     negative rho (up, down):  9.011E-02 0.000E+00

     total cpu time spent up to now is       59.6 secs

     total energy              =    -648.68044226 Ry
     estimated scf accuracy    <       0.01327472 Ry

     iteration # 11     ecut=    35.00 Ry     beta= 0.10
     Davidson diagonalization with overlap
     ethr =  6.38E-06,  avg # of iterations =  1.0

     negative rho (up, down):  1.043E-01 0.000E+00

     total cpu time spent up to now is       64.6 secs

     total energy              =    -648.68093620 Ry
     estimated scf accuracy    <       0.01046843 Ry

     iteration # 12     ecut=    35.00 Ry     beta= 0.10
     Davidson diagonalization with overlap
     ethr =  5.03E-06,  avg # of iterations =  1.0

     negative rho (up, down):  1.249E-01 0.000E+00

     total cpu time spent up to now is       69.6 secs

     total energy              =    -648.67778732 Ry
     estimated scf accuracy    <       0.01373511 Ry

     iteration # 13     ecut=    35.00 Ry     beta= 0.10
     Davidson diagonalization with overlap
     ethr =  5.03E-06,  avg # of iterations =  1.0

     negative rho (up, down):  1.266E-01 0.000E+00

     total cpu time spent up to now is       74.2 secs

     total energy              =    -648.67892693 Ry
     estimated scf accuracy    <       0.00624795 Ry

     iteration # 14     ecut=    35.00 Ry     beta= 0.10
     Davidson diagonalization with overlap
     ethr =  3.00E-06,  avg # of iterations =  1.0

     negative rho (up, down):  1.121E-01 0.000E+00

     total cpu time spent up to now is       78.7 secs

     total energy              =    -648.68195674 Ry
     estimated scf accuracy    <       0.00125500 Ry

     iteration # 15     ecut=    35.00 Ry     beta= 0.10
     Davidson diagonalization with overlap
     ethr =  6.03E-07,  avg # of iterations =  2.0

     negative rho (up, down):  1.031E-01 0.000E+00

     total cpu time spent up to now is       83.5 secs

     total energy              =    -648.68421660 Ry
     estimated scf accuracy    <       0.00040948 Ry

     iteration # 16     ecut=    35.00 Ry     beta= 0.10
     Davidson diagonalization with overlap
     ethr =  1.97E-07,  avg # of iterations =  6.0

     negative rho (up, down):  9.391E-02 0.000E+00

     total cpu time spent up to now is       88.5 secs

     total energy              =    -648.68645443 Ry
     estimated scf accuracy    <       0.00013438 Ry

     iteration # 17     ecut=    35.00 Ry     beta= 0.10
     Davidson diagonalization with overlap
     ethr =  6.46E-08,  avg # of iterations =  2.0

     negative rho (up, down):  8.233E-02 0.000E+00

     total cpu time spent up to now is       94.2 secs

     total energy              =    -648.68910828 Ry
     estimated scf accuracy    <       0.00013797 Ry

     iteration # 18     ecut=    35.00 Ry     beta= 0.10
     Davidson diagonalization with overlap
     ethr =  6.46E-08,  avg # of iterations =  6.0

     negative rho (up, down):  1.342E-02 0.000E+00

     total cpu time spent up to now is      100.0 secs

     End of self-consistent calculation

          k = 0.0000 0.0000 0.0000 ( 19156 PWs)   bands (ev):

   -88.9913 -54.8507 -54.7700 -54.4418 -14.6900 -14.4454 -14.4312 -14.2009
   -13.9460 -13.8842 -13.7441 -13.7359 -13.7121 -13.7021 -13.5231 -13.4963
   -11.9540 -11.8646 -11.7919 -11.7624 -11.7413 -11.6432 -11.5632 -11.5175
   -10.7706 -10.1884 -10.1061  -9.7675  -9.7361  -9.4966  -9.4871  -9.4290
    -9.4261  -8.8778  -8.7736  -8.2290  -8.1486  -7.9850  -7.8670  -7.8466
    -7.7408  -7.7071  -7.5494  -7.3296  -7.2453  -6.8634  -6.7714  -6.7322
    -6.6962  -6.6157  -6.3329  -6.0560  -6.0246  -5.9642  -5.9021  -5.7820
    -5.6568  -5.5971  -5.4216  -5.3941  -5.3208  -5.1609  -5.1500  -4.8589
    -4.7937  -4.7493  -4.6816  -4.6665  -4.6303  -4.4639  -4.3809  -4.3315
    -4.2781  -4.2370  -4.2281  -4.2088  -4.0983  -3.8622  -3.8496  -3.8307
    -3.7467  -3.7100  -3.6322  -3.4764  -3.2871  -3.1489  -2.9288  -2.8639
    -2.8415  -2.7694  -2.6485  -2.4292  -2.1172  -2.1001  -1.7495  -1.6038
    -1.5981  -1.5590  -1.4193  -1.2312  -1.0459  -1.0260  -0.7134  -0.6839
    -0.6664  -0.4854  -0.4544  -0.4185  -0.1495  -0.1011   0.1296   0.5623
     0.5854   0.6141   0.6334   1.0506   1.1486   1.3078   2.1353   2.1763
     2.2610   2.3061   2.3890   2.6645   2.7624

     the Fermi energy is    -0.6745 ev

!    total energy              =    -648.70362394 Ry
     estimated scf accuracy    <       0.00006563 Ry
     smearing contrib. (-TS)   =      -0.00018381 Ry
     internal energy E=F+TS    =    -648.70344012 Ry

     The total energy is F=E-TS. E is the sum of the following terms:
     one-electron contribution =   -1451.06344737 Ry
     hartree contribution      =     768.23232309 Ry
     xc contribution           =    -214.84467962 Ry
     ewald contribution        =     248.97236378 Ry

     convergence has been achieved in  18 iterations

     negative rho (up, down):  1.342E-02 0.000E+00

     Forces acting on atoms (cartesian axes, Ry/au):

     atom    1 type  1   force =     0.04114836   -0.00330422   -0.02213367
     atom    2 type  1   force =     0.05868407   -0.00868398    0.01167388
     atom    3 type  1   force =    -0.05956095    0.00290965    0.00438716
     atom    4 type  1   force =    -0.05086735    0.00113562   -0.00076703
     atom    5 type  1   force =    -0.08123869   -0.00275415    0.01131932
     atom    6 type  1   force =    -0.02494666    0.01042992   -0.00363798
     atom    7 type  1   force =     0.03470001   -0.00566046    0.00198490
     atom    8 type  1   force =     0.07706599    0.00112903   -0.00150960
     atom    9 type  1   force =     0.02539380    0.00132350    0.00703769
     atom   10 type  1   force =     0.06916246   -0.00748321   -0.01448476
     atom   11 type  1   force =    -0.06803732   -0.00038781   -0.00117582
     atom   12 type  1   force =    -0.04574923   -0.00108023    0.00004698
     atom   13 type  1   force =    -0.07440697   -0.00215218    0.00009106
     atom   14 type  1   force =    -0.02982768    0.00402514    0.00936424
     atom   15 type  1   force =     0.03735391   -0.00075226    0.00182126
     atom   16 type  1   force =     0.07362640    0.00623524    0.00124052
     atom   17 type  1   force =     0.04027854   -0.00929787   -0.00384122
     atom   18 type  1   force =     0.05980082    0.00474260    0.00278566
     atom   19 type  1   force =    -0.07001467    0.00033010    0.00360186
     atom   20 type  1   force =    -0.03646153    0.00297826   -0.00009505
     atom   21 type  1   force =    -0.06599318   -0.02710543   -0.00724514
     atom   22 type  1   force =    -0.00774503   -0.00721897   -0.01258854
     atom   23 type  1   force =     0.03987619   -0.00050471    0.00038236
     atom   24 type  1   force =     0.07878993   -0.00093841    0.00001273
     atom   25 type  1   force =     0.12104570   -0.01467601    0.00141021
     atom   26 type  1   force =     0.07466735   -0.00545979    0.00357458
     atom   27 type  1   force =    -0.07454229    0.00129659   -0.00493140
     atom   28 type  1   force =    -0.03588409    0.00289830   -0.00163773
     atom   29 type  1   force =     0.09573662    0.21987126   -0.08732548
     atom   30 type  1   force =    -0.00223348    0.02958266   -0.00569900
     atom   31 type  1   force =     0.03676326    0.00114622   -0.00198740
     atom   32 type  1   force =     0.07783630   -0.00688700    0.00546697
     atom   33 type  1   force =     0.04907821   -0.00113274    0.00031488
     atom   34 type  1   force =     0.06218779   -0.00387957    0.00217198
     atom   35 type  1   force =    -0.05748034   -0.01215765    0.00906157
     atom   36 type  1   force =    -0.04027747    0.01150397   -0.02094842
     atom   37 type  1   force =    -0.07377691    0.00158455   -0.00020595
     atom   38 type  1   force =    -0.04114640   -0.00005195    0.00174915
     atom   39 type  1   force =     0.02328842    0.00498593   -0.00134475
     atom   40 type  1   force =     0.08022270   -0.00820224    0.01009831
     atom   41 type  1   force =     0.04649305   -0.00489385   -0.00085620
     atom   42 type  1   force =     0.06928921   -0.00003406   -0.00040574
     atom   43 type  1   force =    -0.06869003   -0.00099462   -0.00769027
     atom   44 type  1   force =    -0.01817881    0.00547343    0.00207185
     atom   45 type  1   force =    -0.07209614    0.00709198    0.00087703
     atom   46 type  1   force =    -0.04020661    0.00058281    0.00167902
     atom   47 type  1   force =     0.02374262   -0.00595102    0.00831164
     atom   48 type  1   force =     0.07604592   -0.00010441    0.00337222
     atom   49 type  1   force =     0.04001368   -0.00263155    0.00099071
     atom   50 type  1   force =     0.06900424    0.00457474    0.00155047
     atom   51 type  1   force =    -0.05920787    0.01337224   -0.00133048
     atom   52 type  1   force =    -0.03533037   -0.00894371   -0.00332215
     atom   53 type  1   force =    -0.08163831    0.00238020    0.00122593
     atom   54 type  1   force =    -0.03129984    0.00200080    0.00066090
     atom   55 type  1   force =    -0.00722226   -0.01871898   -0.01109585
     atom   56 type  1   force =     0.07063532   -0.03930025   -0.00972671
     atom   57 type  1   force =     0.03524135   -0.00033357   -0.00181896
     atom   58 type  1   force =     0.07348047   -0.00395405   -0.00417606
     atom   59 type  1   force =    -0.07127781   -0.00723792    0.00460686
     atom   60 type  1   force =    -0.19154646   -0.01602634   -0.03217624
     atom   61 type  1   force =    -0.07779249   -0.00550457    0.00450367
     atom   62 type  1   force =    -0.03547718    0.00762887   -0.00169355
     atom   63 type  1   force =    -0.00841578    0.03108289   -0.00270044
     atom   64 type  1   force =    -0.10513138    0.27787163   -0.11846069
     atom   65 type  2   force =     0.08304891   -0.41576838    0.26756471

     Total force =     0.817439     Total SCF correction =     0.037727

     BFGS Geometry Optimization
     Energy error            =      0.0E+00
     Gradient error          =      4.2E-01

     number of scf cycles    =   1
     number of bfgs steps    =   0

     energy   new            =    -648.7036239376 Ry

     new trust radius        =       0.5000000000 bohr
     new conv_thr            =       0.0001000000 Ry


ATOMIC_POSITIONS (crystal)
B             0.6013014768        0.7498507102        0.4985998732
B             0.7018561120        0.7496076442        0.5007384637
B             0.7981161535        0.7501314627        0.5002775219
B             0.8983911224        0.7500513091        0.4999514796
B             0.5474305106        0.8748755630        0.5007160352
B             0.6492109649        0.8754712399        0.4997698694
B             0.8510975227        0.8747442515        0.5001255604
B             0.9524375117        0.8750510111        0.4999045059
B             0.6008031776        0.0000597977        0.5004451886
B             0.7021875316       -0.0003381031        0.4990837265
B             0.7978480551       -0.0000175220        0.4999256199
B             0.8985530029       -0.0000488064        0.5000029717
B             0.5476465903        0.1249027613        0.5000057604
B             0.6490565838        0.1251818619        0.5005923612
B             0.8511814627        0.1249660116        0.5001152091
B             0.9523287212        0.1252817176        0.5000784726
B             0.6012739653        0.2495799078        0.4997570129
B             0.7018914336        0.2502142779        0.5001762149
B             0.7977855138        0.2500149143        0.5002278457
B             0.8988467624        0.2501345625        0.4999939875
B             0.5479127092        0.3737753349        0.4995416886
B             0.6497550333        0.3746738359        0.4992036771
B             0.8512612395        0.3749771966        0.5000241871
B             0.9524920377        0.3749576013        0.5000008055
B             0.6038285410        0.4993369150        0.5000892070
B             0.7023616452        0.4997533182        0.5002261200
B             0.7976423102        0.5000585821        0.4996880506
B             0.8988650262        0.5001309495        0.4998964011
B             0.5530280428        0.6349341230        0.4944759843
B             0.6499293575        0.6263365902        0.4996394942
B             0.8511627810        0.6250517880        0.4998742818
B             0.9524618755        0.6246888345        0.5003458281
B             0.1015522893        0.7499488209        0.5000199185
B             0.2019669307        0.7498247150        0.5001373944
B             0.2981819607        0.7494506988        0.5005732147
B             0.3987260683        0.7505197671        0.4986748492
B             0.0476665183        0.8750715924        0.4999869718
B             0.1486985850        0.8749976529        0.5001106472
B             0.3507365867        0.8752252722        0.4999149343
B             0.4525373549        0.8746294100        0.5006387967
B             0.1014705236       -0.0002211115        0.4999458387
B             0.2021915408       -0.0000015390        0.4999743336
B             0.2978274106       -0.0000449384        0.4995135309
B             0.3994250245        0.0002472982        0.5001310604
B             0.0477196794        0.1253204266        0.5000554788
B             0.1487283095        0.1250263322        0.5001062113
B             0.3507509528        0.1247311237        0.5005257757
B             0.4524052477        0.1249952826        0.5002133192
B             0.1012655882        0.2498811026        0.5000626703
B             0.2021825273        0.2502066939        0.5000980791
B             0.2981273211        0.2506041782        0.4999158369
B             0.3988825398        0.2495959095        0.4997898480
B             0.0474178709        0.3751075411        0.5000775494
B             0.1490100208        0.3750903991        0.5000418071
B             0.3497715678        0.3741542476        0.4992981013
B             0.4522341165        0.3732243541        0.4993847102
B             0.1011146448        0.4999849289        0.4998849365
B             0.2023241055        0.4998213499        0.4997358316
B             0.2977455620        0.4996729796        0.5002914196
B             0.3939415984        0.4992759053        0.4979646027
B             0.0475395100        0.6247512950        0.5002848919
B             0.1488778961        0.6253446841        0.4998928698
B             0.3497338181        0.6264043730        0.4998291761
B             0.4466748113        0.6375546693        0.4925064403
Fe            0.4993033459        0.5005865296        0.5903872458



     Writing output data file ./X3_24_Fe_nospin.save/
     NEW-OLD atomic charge density approx. for the potential

     Check: negative core charge=   -0.000002

     negative rho (up, down):  4.565E-03 0.000E+00

     total cpu time spent up to now is      109.4 secs

     Self-consistent Calculation

     iteration #  1     ecut=    35.00 Ry     beta= 0.10
     Davidson diagonalization with overlap
     c_bands:  1 eigenvalues not converged
     ethr =  1.00E-06,  avg # of iterations = 20.0

     negative rho (up, down):  4.222E-03 0.000E+00

     total cpu time spent up to now is      124.3 secs

     total energy              =    -648.67051866 Ry
     estimated scf accuracy    <       1.86620683 Ry

     iteration #  2     ecut=    35.00 Ry     beta= 0.10
     Davidson diagonalization with overlap
     ethr =  8.97E-04,  avg # of iterations =  2.0

     negative rho (up, down):  1.376E-02 0.000E+00

     total cpu time spent up to now is      129.2 secs

     total energy              =    -648.85908941 Ry
     estimated scf accuracy    <       5.06065383 Ry

     iteration #  3     ecut=    35.00 Ry     beta= 0.10
     Davidson diagonalization with overlap
     ethr =  8.97E-04,  avg # of iterations =  1.0

     negative rho (up, down):  1.472E-02 0.000E+00

     total cpu time spent up to now is      133.9 secs

     total energy              =    -648.87054714 Ry
     estimated scf accuracy    <       0.95515665 Ry

     iteration #  4     ecut=    35.00 Ry     beta= 0.10
     Davidson diagonalization with overlap
     ethr =  4.59E-04,  avg # of iterations =  1.0

     negative rho (up, down):  3.284E-02 0.000E+00

     total cpu time spent up to now is      138.4 secs

     total energy              =    -648.89878302 Ry
     estimated scf accuracy    <       0.78334435 Ry

     iteration #  5     ecut=    35.00 Ry     beta= 0.10
     Davidson diagonalization with overlap
     ethr =  3.77E-04,  avg # of iterations =  1.0

     negative rho (up, down):  8.611E-02 0.000E+00

     total cpu time spent up to now is      142.7 secs

     total energy              =    -648.89110216 Ry
     estimated scf accuracy    <       0.21039783 Ry

     iteration #  6     ecut=    35.00 Ry     beta= 0.10
     Davidson diagonalization with overlap
     ethr =  1.01E-04,  avg # of iterations =  2.0

     negative rho (up, down):  9.788E-02 0.000E+00

     total cpu time spent up to now is      149.1 secs

     total energy              =    -648.89709224 Ry
     estimated scf accuracy    <       0.44788430 Ry

     iteration #  7     ecut=    35.00 Ry     beta= 0.10
     Davidson diagonalization with overlap
     ethr =  1.01E-04,  avg # of iterations =  1.0

     negative rho (up, down):  1.290E-01 0.000E+00

     total cpu time spent up to now is      155.3 secs

     total energy              =    -648.91027341 Ry
     estimated scf accuracy    <       0.04381279 Ry

     iteration #  8     ecut=    35.00 Ry     beta= 0.10
     Davidson diagonalization with overlap
     ethr =  2.11E-05,  avg # of iterations =  4.0

     negative rho (up, down):  1.329E-01 0.000E+00

     total cpu time spent up to now is      162.4 secs

     total energy              =    -648.91184004 Ry
     estimated scf accuracy    <       0.02836782 Ry

     iteration #  9     ecut=    35.00 Ry     beta= 0.10
     Davidson diagonalization with overlap
     ethr =  1.36E-05,  avg # of iterations =  1.0

     negative rho (up, down):  1.274E-01 0.000E+00

     total cpu time spent up to now is      169.1 secs

     total energy              =    -648.91274802 Ry
     estimated scf accuracy    <       0.02647181 Ry

     iteration # 10     ecut=    35.00 Ry     beta= 0.10
     Davidson diagonalization with overlap
     ethr =  1.27E-05,  avg # of iterations =  1.0

     negative rho (up, down):  1.255E-01 0.000E+00

     total cpu time spent up to now is      176.0 secs

     total energy              =    -648.91415549 Ry
     estimated scf accuracy    <       0.00141435 Ry

     iteration # 11     ecut=    35.00 Ry     beta= 0.10
     Davidson diagonalization with overlap
     ethr =  6.80E-07,  avg # of iterations = 18.0

     negative rho (up, down):  1.197E-01 0.000E+00

     total cpu time spent up to now is      182.1 secs

     total energy              =    -648.91546982 Ry
     estimated scf accuracy    <       0.00155107 Ry

     iteration # 12     ecut=    35.00 Ry     beta= 0.10
     Davidson diagonalization with overlap
     ethr =  6.80E-07,  avg # of iterations =  2.0

     negative rho (up, down):  1.112E-01 0.000E+00

     total cpu time spent up to now is      186.8 secs

     total energy              =    -648.91720165 Ry
     estimated scf accuracy    <       0.00043556 Ry

     iteration # 13     ecut=    35.00 Ry     beta= 0.10
     Davidson diagonalization with overlap
     ethr =  2.09E-07,  avg # of iterations =  2.0

     negative rho (up, down):  9.955E-02 0.000E+00

     total cpu time spent up to now is      191.6 secs

     total energy              =    -648.91951237 Ry
     estimated scf accuracy    <       0.00021926 Ry

     iteration # 14     ecut=    35.00 Ry     beta= 0.10
     Davidson diagonalization with overlap
     ethr =  1.05E-07,  avg # of iterations =  7.0

     negative rho (up, down):  8.972E-02 0.000E+00

     total cpu time spent up to now is      196.4 secs

     total energy              =    -648.92147125 Ry
     estimated scf accuracy    <       0.00042653 Ry

     iteration # 15     ecut=    35.00 Ry     beta= 0.10
     Davidson diagonalization with overlap
     ethr =  1.05E-07,  avg # of iterations =  2.0

     negative rho (up, down):  2.534E-03 0.000E+00

     total cpu time spent up to now is      201.0 secs

     End of self-consistent calculation

          k = 0.0000 0.0000 0.0000 ( 19156 PWs)   bands (ev):

   -88.5370 -54.2653 -54.1402 -54.1014 -14.5995 -14.3691 -14.3396 -14.0949
   -13.8463 -13.8140 -13.6557 -13.6253 -13.6197 -13.6126 -13.4029 -13.3842
   -11.8826 -11.7722 -11.7310 -11.6806 -11.5942 -11.5441 -11.4417 -11.4114
   -10.7978 -10.2543 -10.1475  -9.8220  -9.8186  -9.5247  -9.4907  -9.4664
    -9.4534  -8.7684  -8.7591  -8.1342  -8.0394  -7.9222  -7.7950  -7.7457
    -7.6950  -7.6794  -7.4959  -7.3324  -7.2729  -6.9294  -6.8053  -6.7664
    -6.7054  -6.4576  -6.4149  -6.0355  -6.0192  -5.8098  -5.7926  -5.5364
    -5.5116  -5.4227  -5.3112  -5.2495  -5.2465  -5.2037  -5.1004  -5.0765
    -4.8231  -4.6798  -4.6704  -4.6225  -4.5941  -4.5083  -4.5004  -4.3203
    -4.2846  -4.2626  -4.2103  -4.2073  -4.1843  -3.8880  -3.8714  -3.7739
    -3.6777  -3.6361  -3.5898  -3.4308  -3.3333  -3.1887  -3.0847  -2.8162
    -2.7710  -2.6694  -2.3433  -2.1202  -1.9213  -1.8285  -1.7974  -1.6230
    -1.6141  -1.4573  -1.3321  -1.2396  -1.0901  -0.7767  -0.7088  -0.6742
    -0.5720  -0.4584  -0.3902  -0.2885  -0.1659  -0.1369   0.2388   0.5019
     0.5155   0.5639   0.5724   1.2757   1.2914   1.5862   1.9589   2.1173
     2.2882   2.3506   2.5507   2.5634   2.7456

     the Fermi energy is    -0.6616 ev

!    total energy              =    -648.93832363 Ry
     estimated scf accuracy    <       0.00004026 Ry
     smearing contrib. (-TS)   =       0.00016392 Ry
     internal energy E=F+TS    =    -648.93848755 Ry

     The total energy is F=E-TS. E is the sum of the following terms:
     one-electron contribution =   -1422.68675934 Ry
     hartree contribution      =     754.24282936 Ry
     xc contribution           =    -214.45754772 Ry
     ewald contribution        =     233.96299015 Ry

     convergence has been achieved in  15 iterations

     negative rho (up, down):  2.534E-03 0.000E+00

     Forces acting on atoms (cartesian axes, Ry/au):

     atom    1 type  1   force =     0.06316623    0.06901994   -0.01151335
     atom    2 type  1   force =     0.00216411    0.00795589    0.00608321
     atom    3 type  1   force =     0.00667591   -0.00201046    0.00140564
     atom    4 type  1   force =    -0.01556795   -0.00552890   -0.00078193
     atom    5 type  1   force =     0.01964487    0.00671205    0.00318556
     atom    6 type  1   force =    -0.01908146   -0.00463679    0.00375918
     atom    7 type  1   force =     0.02033663    0.00359404    0.00097233
     atom    8 type  1   force =    -0.02345102   -0.00300593   -0.00170431
     atom    9 type  1   force =     0.01097344    0.00117729    0.00462314
     atom   10 type  1   force =    -0.01782417    0.00188876   -0.01364163
     atom   11 type  1   force =     0.01492861   -0.00127243   -0.00159379
     atom   12 type  1   force =    -0.02165492   -0.00069588   -0.00047829
     atom   13 type  1   force =     0.01557512   -0.00395426    0.00314988
     atom   14 type  1   force =    -0.01452996   -0.00518462    0.00396879
     atom   15 type  1   force =     0.01945382    0.00619875    0.00129390
     atom   16 type  1   force =    -0.01716774    0.00252881   -0.00155586
     atom   17 type  1   force =     0.02732219   -0.00308294   -0.01160681
     atom   18 type  1   force =    -0.01623197    0.00198411    0.00389182
     atom   19 type  1   force =     0.01882080    0.00048810    0.00115270
     atom   20 type  1   force =    -0.02409966   -0.00382099   -0.00106736
     atom   21 type  1   force =     0.03727405   -0.05667130   -0.02063895
     atom   22 type  1   force =     0.00061613   -0.02358274   -0.00887473
     atom   23 type  1   force =     0.01512308    0.00020426   -0.00150693
     atom   24 type  1   force =    -0.01351940    0.00481832    0.00159444
     atom   25 type  1   force =     0.02497562    0.02999222    0.01193122
     atom   26 type  1   force =     0.00901923   -0.00099514    0.00176729
     atom   27 type  1   force =     0.01944515   -0.00258383   -0.00475576
     atom   28 type  1   force =    -0.01717058   -0.00319739   -0.00112335
     atom   29 type  1   force =    -0.15032242   -0.06966298    0.00097692
     atom   30 type  1   force =     0.03076201   -0.00058764   -0.00945701
     atom   31 type  1   force =     0.01802876    0.00304932   -0.00184042
     atom   32 type  1   force =    -0.01614838   -0.00121742    0.00236279
     atom   33 type  1   force =     0.01683381   -0.00281626   -0.00055510
     atom   34 type  1   force =    -0.00817983    0.00112385    0.00135189
     atom   35 type  1   force =    -0.00592298    0.00891083    0.00653426
     atom   36 type  1   force =    -0.07361986    0.07309145   -0.01160566
     atom   37 type  1   force =     0.02137691   -0.00357086   -0.00177552
     atom   38 type  1   force =    -0.01681609   -0.00108102    0.00081068
     atom   39 type  1   force =     0.01868633    0.00340062    0.00356937
     atom   40 type  1   force =    -0.01786577    0.01141093    0.00397108
     atom   41 type  1   force =     0.02146679    0.00251402   -0.00062719
     atom   42 type  1   force =    -0.01635773   -0.00118420   -0.00116857
     atom   43 type  1   force =     0.01973996   -0.00249212   -0.01332538
     atom   44 type  1   force =    -0.01365757   -0.00368712    0.00500192
     atom   45 type  1   force =     0.01660530    0.00203169   -0.00156825
     atom   46 type  1   force =    -0.01798174    0.00450909    0.00120183
     atom   47 type  1   force =     0.01725378    0.00434626    0.00388754
     atom   48 type  1   force =    -0.01609179   -0.00447434    0.00291933
     atom   49 type  1   force =     0.02224390    0.00108834   -0.00090680
     atom   50 type  1   force =    -0.01629003   -0.00064394    0.00095350
     atom   51 type  1   force =     0.01466983   -0.00397354    0.00377825
     atom   52 type  1   force =    -0.03046067   -0.00763106   -0.01189370
     atom   53 type  1   force =     0.01609078    0.00344055    0.00152213
     atom   54 type  1   force =    -0.01883512   -0.00178726   -0.00136821
     atom   55 type  1   force =     0.00468404   -0.02174705   -0.00823533
     atom   56 type  1   force =    -0.04376072   -0.05289954   -0.02205547
     atom   57 type  1   force =     0.01678091   -0.00066618   -0.00122528
     atom   58 type  1   force =    -0.01647168   -0.00048992   -0.00418428
     atom   59 type  1   force =    -0.03272619   -0.00128357    0.00080958
     atom   60 type  1   force =     0.01328093    0.03015743    0.01397755
     atom   61 type  1   force =     0.01617745   -0.00233538    0.00228401
     atom   62 type  1   force =    -0.01818020   -0.00202573   -0.00164456
     atom   63 type  1   force =    -0.02674983    0.00381874   -0.00846719
     atom   64 type  1   force =     0.16184760   -0.10104461    0.00577223
     atom   65 type  2   force =    -0.01530662    0.11806964    0.07228304

     Total force =     0.371516     Total SCF correction =     0.021284
     Energy error            =      2.3E-01
     Gradient error          =      1.6E-01

     number of scf cycles    =   2
     number of bfgs steps    =   1

     energy   old            =    -648.7036239376 Ry
     energy   new            =    -648.9383236282 Ry

     CASE: energy  _new < energy  _old

     new trust radius        =       0.1350574294 bohr
     new conv_thr            =       0.0001000000 Ry


ATOMIC_POSITIONS (crystal)
B             0.6031956297        0.7525166575        0.4977860294
B             0.7021623903        0.7498649582        0.5011682930
B             0.7980469934        0.7500707452        0.5003910846
B             0.8977526493        0.7498429945        0.4999024127
B             0.5476232811        0.8751201746        0.5009850039
B             0.6485860223        0.8753535962        0.4999440148
B             0.8517977635        0.8748500315        0.5001952662
B             0.9521234705        0.8749408357        0.4997989260
B             0.6012091315        0.0001135787        0.5007563904
B             0.7019934640       -0.0003096557        0.4982184014
B             0.7979679859       -0.0000693719        0.4998288747
B             0.8977702829       -0.0000823894        0.4999773092
B             0.5477572878        0.1247359282        0.5001781419
B             0.6485350590        0.1250043408        0.5008875232
B             0.8518688394        0.1252027008        0.5002010555
B             0.9521713488        0.1254176620        0.5000041615
B             0.6021880127        0.2494039616        0.4990922654
B             0.7017012846        0.2503200399        0.5004117318
B             0.7980031394        0.2500358955        0.5003210082
B             0.8980365878        0.2500038031        0.4999350336
B             0.5486499746        0.3714068444        0.4983561541
B             0.6497391758        0.3737126768        0.4986140492
B             0.8518412714        0.3749821066        0.4999453082
B             0.9524558128        0.3751394518        0.5000877823
B             0.6050190595        0.5004156760        0.5007511383
B             0.7029220279        0.4996817232        0.5003525370
B             0.7978578622        0.4999658411        0.4993873773
B             0.8982460426        0.5000239753        0.4998213934
B             0.5493365432        0.6335469720        0.4937931398
B             0.6507579428        0.6264918221        0.4990762140
B             0.8518088480        0.6251773499        0.4997572591
B             0.9523500145        0.6245999973        0.5005206403
B             0.1022177058        0.7498324095        0.4999923292
B             0.2020061929        0.7498450918        0.5002293566
B             0.2977783588        0.7497242608        0.5010055988
B             0.3965508150        0.7534333040        0.4978659669
B             0.0479379197        0.8749421755        0.4998885008
B             0.1480670801        0.8749552735        0.5001695591
B             0.3513437766        0.8753876210        0.5000980680
B             0.4523887674        0.8750240738        0.5009402708
B             0.1022512535       -0.0001527437        0.4999044508
B             0.2020379550       -0.0000478259        0.4999072466
B             0.2980756580       -0.0001479047        0.4987227072
B             0.3989763591        0.0001367699        0.5004210421
B             0.0478681795        0.1254421843        0.4999774286
B             0.1480690113        0.1252053076        0.5001858427
B             0.3513210326        0.1248644265        0.5008076383
B             0.4522873827        0.1248205398        0.5004007964
B             0.1020401800        0.2499076114        0.5000216161
B             0.2020295846        0.2502091773        0.5001630972
B             0.2982774141        0.2505300583        0.5001104715
B             0.3979038500        0.2492451101        0.4991138451
B             0.0475121392        0.3752557563        0.5001708126
B             0.1483650132        0.3750328953        0.4999728339
B             0.3498687290        0.3731952878        0.4987558912
B             0.4513397099        0.3709292201        0.4981010826
B             0.1017203046        0.4999569971        0.4998028481
B             0.2021850797        0.4997784804        0.4994726609
B             0.2965536553        0.4995794555        0.5003743589
B             0.3934961126        0.5003529657        0.4984549221
B             0.0476523476        0.6246272765        0.5004472926
B             0.1482331240        0.6253117836        0.4997889947
B             0.3489696486        0.6267401065        0.4993450987
B             0.4506406777        0.6352955199        0.4918224174
Fe            0.4992363843        0.5026779977        0.5965807310



     Writing output data file ./X3_24_Fe_nospin.save/
     NEW-OLD atomic charge density approx. for the potential

     Check: negative core charge=   -0.000002

     negative rho (up, down):  6.850E-03 0.000E+00

     total cpu time spent up to now is      209.3 secs

     Self-consistent Calculation

     iteration #  1     ecut=    35.00 Ry     beta= 0.10
     Davidson diagonalization with overlap
     ethr =  1.00E-06,  avg # of iterations = 16.0

     negative rho (up, down):  6.337E-03 0.000E+00

     total cpu time spent up to now is      224.6 secs

     total energy              =    -648.96555725 Ry
     estimated scf accuracy    <       0.25423442 Ry

     iteration #  2     ecut=    35.00 Ry     beta= 0.10
     Davidson diagonalization with overlap
     ethr =  1.22E-04,  avg # of iterations =  2.0

     negative rho (up, down):  8.146E-03 0.000E+00

     total cpu time spent up to now is      232.4 secs

     total energy              =    -648.96876870 Ry
     estimated scf accuracy    <       1.99587864 Ry

     iteration #  3     ecut=    35.00 Ry     beta= 0.10
     Davidson diagonalization with overlap
     ethr =  1.22E-04,  avg # of iterations =  1.0

     negative rho (up, down):  5.348E-03 0.000E+00

     total cpu time spent up to now is      237.8 secs

     total energy              =    -648.99201338 Ry
     estimated scf accuracy    <       0.09685182 Ry

     iteration #  4     ecut=    35.00 Ry     beta= 0.10
     Davidson diagonalization with overlap
     ethr =  4.66E-05,  avg # of iterations =  2.0

     negative rho (up, down):  1.300E-02 0.000E+00

     total cpu time spent up to now is      242.4 secs

     total energy              =    -648.98778935 Ry
     estimated scf accuracy    <       0.26312158 Ry

     iteration #  5     ecut=    35.00 Ry     beta= 0.10
     Davidson diagonalization with overlap
     ethr =  4.66E-05,  avg # of iterations =  1.0

     negative rho (up, down):  2.451E-02 0.000E+00

     total cpu time spent up to now is      246.8 secs

     total energy              =    -648.99374449 Ry
     estimated scf accuracy    <       0.02377769 Ry

     iteration #  6     ecut=    35.00 Ry     beta= 0.10
     Davidson diagonalization with overlap
     ethr =  1.14E-05,  avg # of iterations =  4.0

     negative rho (up, down):  2.886E-02 0.000E+00

     total cpu time spent up to now is      251.6 secs

     total energy              =    -648.99381130 Ry
     estimated scf accuracy    <       0.01008893 Ry

     iteration #  7     ecut=    35.00 Ry     beta= 0.10
     Davidson diagonalization with overlap
     ethr =  4.85E-06,  avg # of iterations =  1.0

     negative rho (up, down):  3.113E-02 0.000E+00

     total cpu time spent up to now is      258.7 secs

     total energy              =    -648.99374940 Ry
     estimated scf accuracy    <       0.00607415 Ry

     iteration #  8     ecut=    35.00 Ry     beta= 0.10
     Davidson diagonalization with overlap
     ethr =  2.92E-06,  avg # of iterations =  1.0

     negative rho (up, down):  3.913E-02 0.000E+00

     total cpu time spent up to now is      265.2 secs

     total energy              =    -648.99266705 Ry
     estimated scf accuracy    <       0.00204333 Ry

     iteration #  9     ecut=    35.00 Ry     beta= 0.10
     Davidson diagonalization with overlap
     ethr =  9.82E-07,  avg # of iterations =  5.0

     negative rho (up, down):  3.695E-02 0.000E+00

     total cpu time spent up to now is      272.1 secs

     total energy              =    -648.99318741 Ry
     estimated scf accuracy    <       0.00022635 Ry

     iteration # 10     ecut=    35.00 Ry     beta= 0.10
     Davidson diagonalization with overlap
     ethr =  1.09E-07,  avg # of iterations =  2.0

     negative rho (up, down):  3.670E-02 0.000E+00

     total cpu time spent up to now is      277.7 secs

     total energy              =    -648.99326880 Ry
     estimated scf accuracy    <       0.00029623 Ry

     iteration # 11     ecut=    35.00 Ry     beta= 0.10
     Davidson diagonalization with overlap
     ethr =  1.09E-07,  avg # of iterations =  2.0

     negative rho (up, down):  3.396E-02 0.000E+00

     total cpu time spent up to now is      282.2 secs

     total energy              =    -648.99377222 Ry
     estimated scf accuracy    <       0.00014756 Ry

     iteration # 12     ecut=    35.00 Ry     beta= 0.10
     Davidson diagonalization with overlap
     ethr =  7.09E-08,  avg # of iterations =  1.0

     negative rho (up, down):  2.664E-03 0.000E+00

     total cpu time spent up to now is      286.5 secs

     End of self-consistent calculation

          k = 0.0000 0.0000 0.0000 ( 19156 PWs)   bands (ev):

   -88.5491 -54.2699 -54.1910 -54.0538 -14.5455 -14.3305 -14.3257 -14.0777
   -13.8411 -13.7969 -13.6532 -13.6327 -13.6116 -13.6038 -13.4098 -13.3796
   -11.8165 -11.8019 -11.7171 -11.6942 -11.5741 -11.5626 -11.4501 -11.4437
   -10.7971 -10.2297 -10.1715  -9.8169  -9.8029  -9.5377  -9.4964  -9.4779
    -9.4546  -8.7955  -8.7807  -8.0947  -8.0202  -7.9551  -7.7795  -7.7056
    -7.6954  -7.6829  -7.4459  -7.3614  -7.2603  -6.8814  -6.8161  -6.7122
    -6.6648  -6.4274  -6.3879  -6.0526  -5.9787  -5.7686  -5.7564  -5.5474
    -5.5387  -5.3586  -5.3016  -5.2880  -5.2721  -5.2307  -5.1078  -5.0983
    -4.8179  -4.6803  -4.6496  -4.6049  -4.5696  -4.5384  -4.4775  -4.3209
    -4.3097  -4.2626  -4.2154  -4.1984  -4.1796  -3.8678  -3.8584  -3.7385
    -3.6688  -3.6318  -3.5802  -3.4184  -3.3416  -3.2266  -2.9903  -2.7777
    -2.6996  -2.6365  -2.3174  -2.0516  -1.8860  -1.8577  -1.7421  -1.6301
    -1.6246  -1.4191  -1.2695  -1.2525  -1.0712  -0.7699  -0.7264  -0.6244
    -0.5680  -0.4246  -0.4038  -0.2661  -0.1637  -0.1095   0.3198   0.5086
     0.5267   0.5753   0.6134   1.3690   1.3900   1.7137   2.0331   2.1150
     2.4029   2.4217   2.5586   2.6136   2.8974

     the Fermi energy is    -0.6118 ev

!    total energy              =    -648.99879092 Ry
     estimated scf accuracy    <       0.00005386 Ry
     smearing contrib. (-TS)   =       0.00016310 Ry
     internal energy E=F+TS    =    -648.99895402 Ry

     The total energy is F=E-TS. E is the sum of the following terms:
     one-electron contribution =   -1416.87625294 Ry
     hartree contribution      =     751.31745577 Ry
     xc contribution           =    -214.47418168 Ry
     ewald contribution        =     231.03402483 Ry

     convergence has been achieved in  12 iterations

     negative rho (up, down):  2.664E-03 0.000E+00

     Forces acting on atoms (cartesian axes, Ry/au):

     atom    1 type  1   force =     0.01756239   -0.00394311   -0.01148053
     atom    2 type  1   force =    -0.00022730    0.01023546    0.00546169
     atom    3 type  1   force =     0.01208434   -0.00166250   -0.00021917
     atom    4 type  1   force =    -0.00486554   -0.00591615    0.00015219
     atom    5 type  1   force =     0.01249498    0.00553003    0.00130582
     atom    6 type  1   force =     0.00104523    0.01126682    0.00268175
     atom    7 type  1   force =     0.00564476    0.00604057    0.00128660
     atom    8 type  1   force =    -0.00913858   -0.00148344   -0.00180660
     atom    9 type  1   force =     0.00328606    0.00645154    0.00478026
     atom   10 type  1   force =    -0.01218705    0.00295684   -0.01099048
     atom   11 type  1   force =     0.00799029   -0.00225290   -0.00099754
     atom   12 type  1   force =    -0.00862460   -0.00286177   -0.00087738
     atom   13 type  1   force =     0.00912038   -0.00237193    0.00208272
     atom   14 type  1   force =    -0.00409507   -0.01000229    0.00280768
     atom   15 type  1   force =     0.00725269    0.00582405    0.00219209
     atom   16 type  1   force =    -0.01123164    0.00269997   -0.00236879
     atom   17 type  1   force =     0.01761141   -0.00902715   -0.00720550
     atom   18 type  1   force =    -0.00174706   -0.00171470    0.00123272
     atom   19 type  1   force =     0.00888093   -0.00070298    0.00235153
     atom   20 type  1   force =    -0.00978496   -0.00518318   -0.00144365
     atom   21 type  1   force =    -0.00466016   -0.01130380   -0.00424608
     atom   22 type  1   force =     0.00386736   -0.00621093   -0.01156155
     atom   23 type  1   force =     0.00279045    0.00412658   -0.00174125
     atom   24 type  1   force =    -0.00972042    0.00521618    0.00170797
     atom   25 type  1   force =    -0.00292641    0.00865286    0.01577242
     atom   26 type  1   force =    -0.00016128   -0.00116931    0.00205883
     atom   27 type  1   force =     0.02350208   -0.00422874   -0.00315127
     atom   28 type  1   force =    -0.00522689   -0.00359256   -0.00113212
     atom   29 type  1   force =    -0.02398467   -0.01156737   -0.00272824
     atom   30 type  1   force =    -0.01188764    0.00528829   -0.00788425
     atom   31 type  1   force =     0.00693911    0.00422344   -0.00235517
     atom   32 type  1   force =    -0.01072048   -0.00007773    0.00234012
     atom   33 type  1   force =     0.00519716   -0.00529501    0.00014370
     atom   34 type  1   force =    -0.01419223    0.00071267   -0.00015915
     atom   35 type  1   force =    -0.00169868    0.01223355    0.00618362
     atom   36 type  1   force =    -0.01610137   -0.01330571   -0.01228136
     atom   37 type  1   force =     0.00762372   -0.00169967   -0.00195024
     atom   38 type  1   force =    -0.00312277    0.00391390    0.00114827
     atom   39 type  1   force =    -0.00298727    0.01711840    0.00287690
     atom   40 type  1   force =    -0.01222196    0.00811542    0.00144082
     atom   41 type  1   force =     0.00822939   -0.00130476   -0.00079808
     atom   42 type  1   force =    -0.00778153   -0.00227644   -0.00075330
     atom   43 type  1   force =     0.01175459    0.00133391   -0.01094112
     atom   44 type  1   force =    -0.00474658    0.00715524    0.00509363
     atom   45 type  1   force =     0.01060776    0.00241861   -0.00229735
     atom   46 type  1   force =    -0.00593182    0.00550086    0.00205257
     atom   47 type  1   force =     0.00586944   -0.00813423    0.00277960
     atom   48 type  1   force =    -0.00987766   -0.00342909    0.00178454
     atom   49 type  1   force =     0.00911796   -0.00270609   -0.00142599
     atom   50 type  1   force =    -0.00924760   -0.00218485    0.00232536
     atom   51 type  1   force =     0.00132310   -0.00549729    0.00132444
     atom   52 type  1   force =    -0.01935914   -0.00969498   -0.00732170
     atom   53 type  1   force =     0.01124955    0.00431526    0.00162935
     atom   54 type  1   force =    -0.00557851    0.00307250   -0.00174159
     atom   55 type  1   force =    -0.00034859   -0.00180084   -0.01165629
     atom   56 type  1   force =     0.00018350   -0.00927176   -0.00548659
     atom   57 type  1   force =     0.00585529   -0.00217039   -0.00101328
     atom   58 type  1   force =    -0.03211943   -0.00272895   -0.00289542
     atom   59 type  1   force =     0.00314154   -0.00092798    0.00117738
     atom   60 type  1   force =     0.01852889    0.00929514    0.01645185
     atom   61 type  1   force =     0.01090542   -0.00047588    0.00236179
     atom   62 type  1   force =    -0.00754435    0.00134383   -0.00222807
     atom   63 type  1   force =     0.01510594    0.00513247   -0.00829844
     atom   64 type  1   force =     0.02431044   -0.02448614    0.00217091
     atom   65 type  2   force =    -0.00502693    0.02248819    0.04427842

     Total force =     0.123515     Total SCF correction =     0.012384
     SCF correction compared to forces is large: reduce conv_thr to get better values
     Energy error            =      6.0E-02
     Gradient error          =      4.4E-02

     number of scf cycles    =   3
     number of bfgs steps    =   2

     energy   old            =    -648.9383236282 Ry
     energy   new            =    -648.9987909175 Ry

     CASE: energy  _new < energy  _old

     new trust radius        =       0.0769711559 bohr
     new conv_thr            =       0.0000442784 Ry


ATOMIC_POSITIONS (crystal)
B             0.6041185974        0.7525216846        0.4967389273
B             0.7022555486        0.7504566579        0.5016731456
B             0.7984479452        0.7499757010        0.5003948499
B             0.8974363612        0.7494886071        0.4999082733
B             0.5480361359        0.8754527616        0.5011422689
B             0.6485404994        0.8760059182        0.5001646499
B             0.8521300029        0.8751941660        0.5003094383
B             0.9518287610        0.8748483820        0.4996411965
B             0.6014090388        0.0004893494        0.5011843547
B             0.7015773557       -0.0001518858        0.4972255097
B             0.7982111162       -0.0002033882        0.4997374971
B             0.8972974164       -0.0002508374        0.4999049741
B             0.5480366452        0.1245816929        0.5003602492
B             0.6482868768        0.1244245193        0.5011622371
B             0.8522676421        0.1255550428        0.5003886686
B             0.9518024169        0.1255953642        0.4998112733
B             0.6030249394        0.2488556364        0.4984471489
B             0.7016910814        0.2502401225        0.5005383435
B             0.7982880204        0.2499981969        0.5005265803
B             0.8975267652        0.2497015348        0.4998140894
B             0.5484445058        0.3705015262        0.4978928759
B             0.6498825302        0.3732594350        0.4976047726
B             0.8520553222        0.3752173756        0.4998000151
B             0.9521646682        0.3754518638        0.5002321429
B             0.6051624618        0.5009788295        0.5020750344
B             0.7030608068        0.4995985920        0.5005375744
B             0.7987215245        0.4997183973        0.4990960370
B             0.8979362041        0.4998145431        0.4997199961
B             0.5481725531        0.6331650683        0.4932908808
B             0.6503531056        0.6268617866        0.4983810460
B             0.8521906913        0.6254318664        0.4995534125
B             0.9520109476        0.6245750916        0.5007373116
B             0.1025473560        0.7495175091        0.5000021838
B             0.2015216493        0.7498805218        0.5002303377
B             0.2976010853        0.7504252043        0.5015617377
B             0.3956624738        0.7529524540        0.4967582812
B             0.0481724728        0.8748364951        0.4997232479
B             0.1478335496        0.8751750271        0.5002711063
B             0.3513079339        0.8763891203        0.5003409788
B             0.4519894486        0.8755077107        0.5011080908
B             0.1027090893       -0.0002301709        0.4998347535
B             0.2018017924       -0.0001820472        0.4998400055
B             0.2984798782       -0.0000826434        0.4977577578
B             0.3987234862        0.0005457634        0.5008594819
B             0.0482133318        0.1256041202        0.4997889931
B             0.1477218745        0.1255365095        0.5003613808
B             0.3516366967        0.1244006482        0.5010762335
B             0.4519792006        0.1246089503        0.5005687889
B             0.1025247175        0.2497505490        0.4999064496
B             0.2017344801        0.2500929374        0.5003588307
B             0.2982678692        0.2502338660        0.5002302607
B             0.3969976257        0.2486437774        0.4984597650
B             0.0478659404        0.3755197824        0.5003125467
B             0.1480446713        0.3752069904        0.4998291042
B             0.3498541589        0.3729731717        0.4977470609
B             0.4513581485        0.3701242054        0.4975235312
B             0.1020532718        0.4998299144        0.4997098651
B             0.2009822001        0.4996115440        0.4992070431
B             0.2964824206        0.4995049168        0.5004876787
B             0.3939525470        0.5009501944        0.4997319914
B             0.0479989535        0.6245790323        0.5006621316
B             0.1478288354        0.6253995873        0.4995972325
B             0.3494952815        0.6271199130        0.4986314968
B             0.4518299974        0.6342042735        0.4916322419
Fe            0.4991356764        0.5033881580        0.6013563335



     Writing output data file ./X3_24_Fe_nospin.save/
     NEW-OLD atomic charge density approx. for the potential

     Check: negative core charge=   -0.000002

     negative rho (up, down):  2.668E-03 0.000E+00

     total cpu time spent up to now is      294.7 secs

     Self-consistent Calculation

     iteration #  1     ecut=    35.00 Ry     beta= 0.10
     Davidson diagonalization with overlap
     ethr =  1.00E-06,  avg # of iterations =  8.0

     negative rho (up, down):  2.282E-03 0.000E+00

     total cpu time spent up to now is      303.8 secs

     total energy              =    -649.00780634 Ry
     estimated scf accuracy    <       0.02525241 Ry

     iteration #  2     ecut=    35.00 Ry     beta= 0.10
     Davidson diagonalization with overlap
     ethr =  1.21E-05,  avg # of iterations =  1.0

     negative rho (up, down):  2.975E-03 0.000E+00

     total cpu time spent up to now is      309.0 secs

     total energy              =    -649.00732301 Ry
     estimated scf accuracy    <       0.02711726 Ry

     iteration #  3     ecut=    35.00 Ry     beta= 0.10
     Davidson diagonalization with overlap
     ethr =  1.21E-05,  avg # of iterations =  1.0

     negative rho (up, down):  2.469E-03 0.000E+00

     total cpu time spent up to now is      314.2 secs

     total energy              =    -649.00695917 Ry
     estimated scf accuracy    <       0.08121483 Ry

     iteration #  4     ecut=    35.00 Ry     beta= 0.10
     Davidson diagonalization with overlap
     ethr =  1.21E-05,  avg # of iterations =  1.0

     negative rho (up, down):  4.713E-03 0.000E+00

     total cpu time spent up to now is      318.7 secs

     total energy              =    -649.00789938 Ry
     estimated scf accuracy    <       0.00743459 Ry

     iteration #  5     ecut=    35.00 Ry     beta= 0.10
     Davidson diagonalization with overlap
     ethr =  3.57E-06,  avg # of iterations =  2.0

     negative rho (up, down):  9.569E-03 0.000E+00

     total cpu time spent up to now is      323.4 secs

     total energy              =    -649.00791516 Ry
     estimated scf accuracy    <       0.00234947 Ry

     iteration #  6     ecut=    35.00 Ry     beta= 0.10
     Davidson diagonalization with overlap
     ethr =  1.13E-06,  avg # of iterations =  4.0

     negative rho (up, down):  1.664E-02 0.000E+00

     total cpu time spent up to now is      328.3 secs

     total energy              =    -649.00721936 Ry
     estimated scf accuracy    <       0.00152585 Ry

     iteration #  7     ecut=    35.00 Ry     beta= 0.10
     Davidson diagonalization with overlap
     ethr =  7.34E-07,  avg # of iterations =  2.0

     negative rho (up, down):  3.036E-02 0.000E+00

     total cpu time spent up to now is      334.4 secs

     total energy              =    -649.00542825 Ry
     estimated scf accuracy    <       0.00050635 Ry

     iteration #  8     ecut=    35.00 Ry     beta= 0.10
     Davidson diagonalization with overlap
     ethr =  2.43E-07,  avg # of iterations =  5.0

     negative rho (up, down):  2.767E-02 0.000E+00

     total cpu time spent up to now is      340.1 secs

     total energy              =    -649.00592274 Ry
     estimated scf accuracy    <       0.00011532 Ry

     iteration #  9     ecut=    35.00 Ry     beta= 0.10
     Davidson diagonalization with overlap
     ethr =  5.54E-08,  avg # of iterations =  2.0

     negative rho (up, down):  2.641E-02 0.000E+00

     total cpu time spent up to now is      344.9 secs

     total energy              =    -649.00611529 Ry
     estimated scf accuracy    <       0.00004899 Ry

     iteration # 10     ecut=    35.00 Ry     beta= 0.10
     Davidson diagonalization with overlap
     ethr =  2.36E-08,  avg # of iterations =  2.0

     negative rho (up, down):  2.111E-03 0.000E+00

     total cpu time spent up to now is      352.4 secs

     End of self-consistent calculation

          k = 0.0000 0.0000 0.0000 ( 19156 PWs)   bands (ev):

   -88.6041 -54.3531 -54.2760 -54.0418 -14.5561 -14.3452 -14.3364 -14.0937
   -13.8483 -13.8324 -13.6662 -13.6461 -13.6403 -13.6348 -13.4265 -13.4129
   -11.8493 -11.8207 -11.7541 -11.7093 -11.6006 -11.5898 -11.4923 -11.4625
   -10.7972 -10.2185 -10.1868  -9.8141  -9.7911  -9.5517  -9.4919  -9.4913
    -9.4762  -8.8316  -8.8179  -8.1244  -8.0296  -7.9850  -7.7901  -7.7184
    -7.7053  -7.6882  -7.4073  -7.3747  -7.2492  -6.8549  -6.7860  -6.6840
    -6.6453  -6.4052  -6.3724  -6.0649  -5.9807  -5.7861  -5.7664  -5.5949
    -5.5757  -5.3433  -5.3391  -5.3028  -5.2779  -5.2429  -5.1082  -5.0816
    -4.8215  -4.7042  -4.6616  -4.6117  -4.5495  -4.5342  -4.4791  -4.3213
    -4.3168  -4.2706  -4.2246  -4.2050  -4.2027  -3.8634  -3.8560  -3.7048
    -3.6495  -3.6420  -3.6075  -3.3825  -3.3392  -3.2351  -2.9578  -2.7653
    -2.6806  -2.6274  -2.3178  -2.0286  -1.9286  -1.8586  -1.7395  -1.6491
    -1.6167  -1.3909  -1.3179  -1.2587  -1.0483  -0.8101  -0.7093  -0.6414
    -0.5669  -0.4473  -0.4420  -0.2701  -0.1714  -0.1021   0.3555   0.5127
     0.5412   0.5715   0.6449   1.4096   1.4205   1.7442   2.0188   2.1124
     2.4270   2.4354   2.5895   2.6468   2.9309

     the Fermi energy is    -0.6288 ev

!    total energy              =    -649.00988300 Ry
     estimated scf accuracy    <       0.00001758 Ry
     smearing contrib. (-TS)   =       0.00016310 Ry
     internal energy E=F+TS    =    -649.01004610 Ry

     The total energy is F=E-TS. E is the sum of the following terms:
     one-electron contribution =   -1414.08396815 Ry
     hartree contribution      =     749.97471696 Ry
     xc contribution           =    -214.53042724 Ry
     ewald contribution        =     229.62963234 Ry

     convergence has been achieved in  10 iterations

     negative rho (up, down):  2.111E-03 0.000E+00

     Forces acting on atoms (cartesian axes, Ry/au):

     atom    1 type  1   force =     0.00246801    0.00173091   -0.00913396
     atom    2 type  1   force =     0.00749061    0.00738571    0.00467671
     atom    3 type  1   force =    -0.00020993   -0.00293174   -0.00070889
     atom    4 type  1   force =     0.00246927   -0.00424545    0.00133968
     atom    5 type  1   force =    -0.00398115   -0.00103981    0.00121723
     atom    6 type  1   force =     0.00374528    0.00330253    0.00197400
     atom    7 type  1   force =    -0.00025548    0.00570959    0.00157859
     atom    8 type  1   force =     0.00217492    0.00062991   -0.00098043
     atom    9 type  1   force =    -0.00232728    0.00189768    0.00485667
     atom   10 type  1   force =     0.00483774    0.00364999   -0.00773959
     atom   11 type  1   force =    -0.00619085   -0.00267015   -0.00061572
     atom   12 type  1   force =     0.00041701   -0.00413430   -0.00062615
     atom   13 type  1   force =    -0.00499886    0.00064763    0.00153328
     atom   14 type  1   force =     0.00336246   -0.00497710    0.00248044
     atom   15 type  1   force =    -0.00002495    0.00406090    0.00306870
     atom   16 type  1   force =     0.00221268    0.00305044   -0.00216554
     atom   17 type  1   force =     0.00812678   -0.00288484   -0.00365500
     atom   18 type  1   force =     0.00925760   -0.00290007   -0.00050928
     atom   19 type  1   force =    -0.00294961   -0.00205774    0.00382672
     atom   20 type  1   force =    -0.00003299   -0.00411340   -0.00118714
     atom   21 type  1   force =    -0.00607950   -0.00089667    0.00213793
     atom   22 type  1   force =    -0.00177092    0.00106158   -0.01160098
     atom   23 type  1   force =    -0.00194832    0.00541193   -0.00112184
     atom   24 type  1   force =     0.00357611    0.00423922    0.00159252
     atom   25 type  1   force =    -0.00959629   -0.00328296    0.01420518
     atom   26 type  1   force =     0.00422694    0.00132871    0.00284281
     atom   27 type  1   force =    -0.00026023   -0.00459623   -0.00116738
     atom   28 type  1   force =     0.00581147   -0.00330376   -0.00074464
     atom   29 type  1   force =     0.01153587   -0.00227719   -0.00129597
     atom   30 type  1   force =    -0.01102709   -0.00118266   -0.00590735
     atom   31 type  1   force =     0.00165590    0.00387444   -0.00195076
     atom   32 type  1   force =     0.00386570    0.00072639    0.00287891
     atom   33 type  1   force =    -0.00270737   -0.00479892    0.00128201
     atom   34 type  1   force =    -0.00058190   -0.00153321   -0.00059235
     atom   35 type  1   force =    -0.00711227    0.00917600    0.00524801
     atom   36 type  1   force =    -0.00178586    0.00069991   -0.00992849
     atom   37 type  1   force =    -0.00233063    0.00074366   -0.00114109
     atom   38 type  1   force =     0.00061940    0.00563745    0.00145787
     atom   39 type  1   force =    -0.00277537    0.00007739    0.00227617
     atom   40 type  1   force =     0.00270413   -0.00083555    0.00110385
     atom   41 type  1   force =    -0.00029480   -0.00418503   -0.00041431
     atom   42 type  1   force =     0.00633490   -0.00237972   -0.00048013
     atom   43 type  1   force =    -0.00614590    0.00441497   -0.00791403
     atom   44 type  1   force =     0.00173266    0.00279842    0.00500203
     atom   45 type  1   force =    -0.00239144    0.00305610   -0.00204022
     atom   46 type  1   force =     0.00045080    0.00412775    0.00290693
     atom   47 type  1   force =    -0.00300864   -0.00511853    0.00272089
     atom   48 type  1   force =     0.00486172    0.00031009    0.00113800
     atom   49 type  1   force =    -0.00033248   -0.00419301   -0.00128574
     atom   50 type  1   force =     0.00255966   -0.00307394    0.00388558
     atom   51 type  1   force =    -0.00966219   -0.00423913   -0.00035982
     atom   52 type  1   force =    -0.00900992   -0.00188775   -0.00385220
     atom   53 type  1   force =    -0.00396641    0.00348364    0.00146463
     atom   54 type  1   force =     0.00047350    0.00530839   -0.00107239
     atom   55 type  1   force =     0.00249718    0.00296149   -0.01189450
     atom   56 type  1   force =     0.00535570    0.00003007    0.00084518
     atom   57 type  1   force =    -0.00755742   -0.00328599   -0.00048892
     atom   58 type  1   force =     0.00236173   -0.00431220   -0.00117763
     atom   59 type  1   force =    -0.00279591    0.00189255    0.00225717
     atom   60 type  1   force =     0.01417744   -0.00281780    0.01376663
     atom   61 type  1   force =    -0.00402366    0.00090042    0.00305894
     atom   62 type  1   force =    -0.00346399    0.00409186   -0.00198325
     atom   63 type  1   force =     0.01217814   -0.00267444   -0.00632919
     atom   64 type  1   force =    -0.01226220   -0.00835018    0.00129610
     atom   65 type  2   force =     0.00032055    0.00276176    0.00214548

     Total force =     0.063843     Total SCF correction =     0.009742
     SCF correction compared to forces is large: reduce conv_thr to get better values
     Energy error            =      1.1E-02
     Gradient error          =      1.4E-02

     number of scf cycles    =   4
     number of bfgs steps    =   3

     energy   old            =    -648.9987909175 Ry
     energy   new            =    -649.0098829992 Ry

     CASE: energy  _new < energy  _old

     new trust radius        =       0.0283806848 bohr
     new conv_thr            =       0.0000142052 Ry


ATOMIC_POSITIONS (crystal)
B             0.6044880700        0.7527337914        0.4958143112
B             0.7025567908        0.7509823881        0.5021403574
B             0.7985297896        0.7497990165        0.5003480051
B             0.8974353782        0.7491812161        0.5000054188
B             0.5479968554        0.8754814031        0.5012747147
B             0.6486421475        0.8763116305        0.5003650065
B             0.8522198649        0.8755718785        0.5004520823
B             0.9518224037        0.8748562601        0.4995311966
B             0.6013824823        0.0006714111        0.5016438556
B             0.7016484967        0.0000750348        0.4964104940
B             0.7980498786       -0.0003738803        0.4996687437
B             0.8971807151       -0.0005042445        0.4998424893
B             0.5479270356        0.1245751726        0.5005192204
B             0.6483361664        0.1240314163        0.5014138705
B             0.8523793685        0.1258535779        0.5006567868
B             0.9517889207        0.1257979845        0.4996078978
B             0.6035386733        0.2485806778        0.4980121930
B             0.7020121993        0.2500755611        0.5005383366
B             0.7982588406        0.2498835517        0.5008539132
B             0.8973834294        0.2494154495        0.4996986793
B             0.5482185216        0.3701575970        0.4978977336
B             0.6498487389        0.3731752520        0.4965159803
B             0.8520519306        0.3755508040        0.4996831441
B             0.9522226234        0.3757486846        0.5003835000
B             0.6048830615        0.5009793458        0.5034274962
B             0.7032622848        0.4996477183        0.5007900750
B             0.7989154338        0.4994208597        0.4989356050
B             0.8980580183        0.4995917674        0.4996407448
B             0.5481672778        0.6328675182        0.4930763653
B             0.6499006383        0.6268819656        0.4977756614
B             0.8523584105        0.6256943390        0.4993621576
B             0.9520658825        0.6246047278        0.5010010202
B             0.1025439163        0.7491942008        0.5000967051
B             0.2013912653        0.7498096051        0.5001909210
B             0.2972910765        0.7510691571        0.5020824159
B             0.3953126138        0.7530151672        0.4957625302
B             0.0481579314        0.8748465317        0.4995999241
B             0.1477820006        0.8755146947        0.5004017775
B             0.3512236279        0.8766149521        0.5005681192
B             0.4519870646        0.8755870873        0.5012362470
B             0.1028268563       -0.0004614788        0.4997878085
B             0.2019681401       -0.0003372239        0.4997875210
B             0.2983607591        0.0001574081        0.4969378796
B             0.3987142185        0.0007739464        0.5013319807
B             0.0482146173        0.1258028754        0.4995956459
B             0.1476383919        0.1258311838        0.5006148297
B             0.3516176911        0.1240406546        0.5013437577
B             0.4520771017        0.1245718061        0.5006957997
B             0.1026472722        0.2494994722        0.4997856451
B             0.2017502345        0.2499068634        0.5006875285
B             0.2979258495        0.2499434645        0.5002387632
B             0.3964332694        0.2484015508        0.4980078474
B             0.0478101106        0.3757647245        0.5004540107
B             0.1479674552        0.3755186646        0.4997165700
B             0.3499474611        0.3730397408        0.4966387214
B             0.4515098955        0.3698554153        0.4974054461
B             0.1018720833        0.4996298280        0.4996508361
B             0.2007957582        0.4993491999        0.4990529164
B             0.2963189364        0.4995846156        0.5006797714
B             0.3945695290        0.5009824535        0.5010418820
B             0.0479399047        0.6246109394        0.5009382563
B             0.1475901256        0.6256294355        0.4994067283
B             0.3500198395        0.6270722212        0.4979942328
B             0.4518275523        0.6333889071        0.4916809818
Fe            0.4991137237        0.5038436468        0.6027606413



     Writing output data file ./X3_24_Fe_nospin.save/
     NEW-OLD atomic charge density approx. for the potential

     Check: negative core charge=   -0.000002

     negative rho (up, down):  2.125E-03 0.000E+00

     total cpu time spent up to now is      364.6 secs

     Self-consistent Calculation

     iteration #  1     ecut=    35.00 Ry     beta= 0.10
     Davidson diagonalization with overlap
     ethr =  1.00E-06,  avg # of iterations =  7.0

     negative rho (up, down):  2.147E-03 0.000E+00

     total cpu time spent up to now is      373.7 secs

     total energy              =    -649.00393893 Ry
     estimated scf accuracy    <       0.06146735 Ry

     iteration #  2     ecut=    35.00 Ry     beta= 0.10
     Davidson diagonalization with overlap
     ethr =  2.96E-05,  avg # of iterations =  2.0

     negative rho (up, down):  2.392E-03 0.000E+00

     total cpu time spent up to now is      378.5 secs

     total energy              =    -648.99829733 Ry
     estimated scf accuracy    <       1.04725251 Ry

     iteration #  3     ecut=    35.00 Ry     beta= 0.10
     Davidson diagonalization with overlap
     ethr =  2.96E-05,  avg # of iterations =  1.0

     negative rho (up, down):  2.448E-03 0.000E+00

     total cpu time spent up to now is      384.3 secs

     total energy              =    -649.01323390 Ry
     estimated scf accuracy    <       0.00665334 Ry

     iteration #  4     ecut=    35.00 Ry     beta= 0.10
     Davidson diagonalization with overlap
     ethr =  3.20E-06,  avg # of iterations =  2.0

     negative rho (up, down):  2.587E-03 0.000E+00

     total cpu time spent up to now is      388.8 secs

     total energy              =    -649.01340397 Ry
     estimated scf accuracy    <       0.00163493 Ry

     iteration #  5     ecut=    35.00 Ry     beta= 0.10
     Davidson diagonalization with overlap
[...]

     iteration #214     ecut=    35.00 Ry     beta= 0.10
     Davidson diagonalization with overlap
     ethr =  3.76E-08,  avg # of iterations =  1.0

     negative rho (up, down):  2.281E-03 0.000E+00

     total cpu time spent up to now is     1943.0 secs

     total energy              =    -649.02468849 Ry
     estimated scf accuracy    <       0.00018005 Ry

     iteration #215     ecut=    35.00 Ry     beta= 0.10
     Davidson diagonalization with overlap
     ethr =  3.76E-08,  avg # of iterations =  1.0

     negative rho (up, down):  2.269E-03 0.000E+00

     total cpu time spent up to now is     1948.0 secs

     total energy              =    -649.02464627 Ry
     estimated scf accuracy    <       0.00017943 Ry

     iteration #216     ecut=    35.00 Ry     beta= 0.10
     Davidson diagonalization with overlap
     ethr =  3.76E-08,  avg # of iterations =  2.0

     negative rho (up, down):  2.248E-03 0.000E+00

     total cpu time spent up to now is     1953.8 secs

     total energy              =    -649.02443270 Ry
     estimated scf accuracy    <       0.00038022 Ry

     iteration #217     ecut=    35.00 Ry     beta= 0.10
     Davidson diagonalization with overlap
     ethr =  3.76E-08,  avg # of iterations =  1.0

     negative rho (up, down):  2.249E-03 0.000E+00

     total cpu time spent up to now is     1958.8 secs

     total energy              =    -649.02441076 Ry
     estimated scf accuracy    <       0.00054755 Ry

     iteration #218     ecut=    35.00 Ry     beta= 0.10
     Davidson diagonalization with overlap
     ethr =  3.76E-08,  avg # of iterations =  1.0

     negative rho (up, down):  2.254E-03 0.000E+00

     total cpu time spent up to now is     1963.9 secs

     total energy              =    -649.02439077 Ry
     estimated scf accuracy    <       0.00044335 Ry

     iteration #219     ecut=    35.00 Ry     beta= 0.10
     Davidson diagonalization with overlap
     ethr =  3.76E-08,  avg # of iterations =  1.0

     negative rho (up, down):  2.258E-03 0.000E+00

     total cpu time spent up to now is     1969.0 secs

     total energy              =    -649.02438503 Ry
     estimated scf accuracy    <       0.00016963 Ry

     iteration #220     ecut=    35.00 Ry     beta= 0.10
     Davidson diagonalization with overlap
     ethr =  3.76E-08,  avg # of iterations =  1.0

     negative rho (up, down):  2.256E-03 0.000E+00

     total cpu time spent up to now is     1974.1 secs

     total energy              =    -649.02468923 Ry
     estimated scf accuracy    <       0.00020729 Ry

     iteration #221     ecut=    35.00 Ry     beta= 0.10
     Davidson diagonalization with overlap
     ethr =  3.76E-08,  avg # of iterations =  1.0

     negative rho (up, down):  2.257E-03 0.000E+00

     total cpu time spent up to now is     1979.7 secs

     total energy              =    -649.02438925 Ry
     estimated scf accuracy    <       0.00010890 Ry

     iteration #222     ecut=    35.00 Ry     beta= 0.10
     Davidson diagonalization with overlap
     ethr =  3.76E-08,  avg # of iterations =  1.0

     negative rho (up, down):  2.256E-03 0.000E+00

     total cpu time spent up to now is     1985.2 secs

     total energy              =    -649.02468925 Ry
     estimated scf accuracy    <       0.00018762 Ry

     iteration #223     ecut=    35.00 Ry     beta= 0.10
     Davidson diagonalization with overlap
     ethr =  3.76E-08,  avg # of iterations =  1.0

     negative rho (up, down):  2.255E-03 0.000E+00

     total cpu time spent up to now is     1991.5 secs

     total energy              =    -649.02439119 Ry
     estimated scf accuracy    <       0.00011212 Ry

     iteration #224     ecut=    35.00 Ry     beta= 0.10
     Davidson diagonalization with overlap
     ethr =  3.76E-08,  avg # of iterations =  1.0

     negative rho (up, down):  2.256E-03 0.000E+00

     total cpu time spent up to now is     1997.2 secs

     total energy              =    -649.02438949 Ry
     estimated scf accuracy    <       0.00010156 Ry

     iteration #225     ecut=    35.00 Ry     beta= 0.10
     Davidson diagonalization with overlap
     ethr =  3.76E-08,  avg # of iterations =  1.0

     negative rho (up, down):  2.257E-03 0.000E+00

     total cpu time spent up to now is     2002.3 secs

     total energy              =    -649.02469191 Ry
     estimated scf accuracy    <       0.00018662 Ry

     iteration #226     ecut=    35.00 Ry     beta= 0.10
     Davidson diagonalization with overlap
     ethr =  3.76E-08,  avg # of iterations =  1.0

     negative rho (up, down):  2.258E-03 0.000E+00

     total cpu time spent up to now is     2008.3 secs

     total energy              =    -649.02469116 Ry
     estimated scf accuracy    <       0.00018426 Ry

     iteration #227     ecut=    35.00 Ry     beta= 0.10
     Davidson diagonalization with overlap
     ethr =  3.76E-08,  avg # of iterations =  1.0

     negative rho (up, down):  2.260E-03 0.000E+00

     total cpu time spent up to now is     2013.9 secs

     total energy              =    -649.02468926 Ry
     estimated scf accuracy    <       0.00017974 Ry

     iteration #228     ecut=    35.00 Ry     beta= 0.10
     Davidson diagonalization with overlap
     ethr =  3.76E-08,  avg # of iterations =  1.0

     negative rho (up, down):  2.258E-03 0.000E+00

     total cpu time spent up to now is     2019.5 secs

     total energy              =    -649.02439030 Ry
     estimated scf accuracy    <       0.00010697 Ry

     iteration #229     ecut=    35.00 Ry     beta= 0.10
     Davidson diagonalization with overlap
     ethr =  3.76E-08,  avg # of iterations =  1.0

     negative rho (up, down):  2.256E-03 0.000E+00

     total cpu time spent up to now is     2024.6 secs

     total energy              =    -649.02439028 Ry
     estimated scf accuracy    <       0.00008671 Ry

     iteration #230     ecut=    35.00 Ry     beta= 0.10
     Davidson diagonalization with overlap
     ethr =  3.76E-08,  avg # of iterations =  1.0

     negative rho (up, down):  2.258E-03 0.000E+00

     total cpu time spent up to now is     2029.7 secs

     total energy              =    -649.02469106 Ry
     estimated scf accuracy    <       0.00017923 Ry

     iteration #231     ecut=    35.00 Ry     beta= 0.10
     Davidson diagonalization with overlap
     ethr =  3.76E-08,  avg # of iterations =  1.0

     negative rho (up, down):  2.261E-03 0.000E+00

     total cpu time spent up to now is     2034.8 secs

     total energy              =    -649.02469056 Ry
     estimated scf accuracy    <       0.00017941 Ry

     iteration #232     ecut=    35.00 Ry     beta= 0.10
     Davidson diagonalization with overlap
     ethr =  3.76E-08,  avg # of iterations =  1.0

     negative rho (up, down):  2.258E-03 0.000E+00

     total cpu time spent up to now is     2039.9 secs

     total energy              =    -649.02439015 Ry
     estimated scf accuracy    <       0.00008312 Ry

     iteration #233     ecut=    35.00 Ry     beta= 0.10
     Davidson diagonalization with overlap
     ethr =  3.76E-08,  avg # of iterations =  1.0

     negative rho (up, down):  2.256E-03 0.000E+00

     total cpu time spent up to now is     2045.1 secs

     total energy              =    -649.02439011 Ry
     estimated scf accuracy    <       0.00008229 Ry

     iteration #234     ecut=    35.00 Ry     beta= 0.10
     Davidson diagonalization with overlap
     ethr =  3.76E-08,  avg # of iterations =  1.0

     negative rho (up, down):  2.259E-03 0.000E+00

     total cpu time spent up to now is     2050.2 secs

     total energy              =    -649.02469131 Ry
     estimated scf accuracy    <       0.00018109 Ry

     iteration #235     ecut=    35.00 Ry     beta= 0.10
     Davidson diagonalization with overlap
     ethr =  3.76E-08,  avg # of iterations =  1.0

     negative rho (up, down):  2.262E-03 0.000E+00

     total cpu time spent up to now is     2055.5 secs

     total energy              =    -649.02469088 Ry
     estimated scf accuracy    <       0.00018152 Ry

     iteration #236     ecut=    35.00 Ry     beta= 0.10
     Davidson diagonalization with overlap
     ethr =  3.76E-08,  avg # of iterations =  1.0

     negative rho (up, down):  2.266E-03 0.000E+00

     total cpu time spent up to now is     2060.7 secs

     total energy              =    -649.02469031 Ry
     estimated scf accuracy    <       0.00018078 Ry

     iteration #237     ecut=    35.00 Ry     beta= 0.10
     Davidson diagonalization with overlap
     ethr =  3.76E-08,  avg # of iterations =  1.0

     negative rho (up, down):  2.270E-03 0.000E+00

     total cpu time spent up to now is     2065.9 secs

     total energy              =    -649.02468976 Ry
     estimated scf accuracy    <       0.00017956 Ry

     iteration #238     ecut=    35.00 Ry     beta= 0.10
     Davidson diagonalization with overlap
     ethr =  3.76E-08,  avg # of iterations =  1.0

     negative rho (up, down):  2.275E-03 0.000E+00

     total cpu time spent up to now is     2071.1 secs

     total energy              =    -649.02468938 Ry
     estimated scf accuracy    <       0.00017901 Ry

     iteration #239     ecut=    35.00 Ry     beta= 0.10
     Davidson diagonalization with overlap
     ethr =  3.76E-08,  avg # of iterations =  1.0

     negative rho (up, down):  2.279E-03 0.000E+00

     total cpu time spent up to now is     2076.5 secs

     total energy              =    -649.02468865 Ry
     estimated scf accuracy    <       0.00018021 Ry

     iteration #240     ecut=    35.00 Ry     beta= 0.10
     Davidson diagonalization with overlap
     ethr =  3.76E-08,  avg # of iterations =  1.0

     negative rho (up, down):  2.284E-03 0.000E+00

     total cpu time spent up to now is     2081.8 secs

     total energy              =    -649.02468820 Ry
     estimated scf accuracy    <       0.00017872 Ry

     iteration #241     ecut=    35.00 Ry     beta= 0.10
     Davidson diagonalization with overlap
     ethr =  3.76E-08,  avg # of iterations =  1.0

     negative rho (up, down):  2.289E-03 0.000E+00

     total cpu time spent up to now is     2087.2 secs

     total energy              =    -649.02468768 Ry
     estimated scf accuracy    <       0.00017956 Ry

     iteration #242     ecut=    35.00 Ry     beta= 0.10
     Davidson diagonalization with overlap
     ethr =  3.76E-08,  avg # of iterations =  1.0

     negative rho (up, down):  2.260E-03 0.000E+00

     total cpu time spent up to now is     2092.4 secs

     total energy              =    -649.02464821 Ry
     estimated scf accuracy    <       0.00017982 Ry

     iteration #243     ecut=    35.00 Ry     beta= 0.10
     Davidson diagonalization with overlap
     ethr =  3.76E-08,  avg # of iterations =  2.0

     negative rho (up, down):  2.250E-03 0.000E+00

     total cpu time spent up to now is     2099.5 secs

     total energy              =    -649.02444072 Ry
     estimated scf accuracy    <       0.00038779 Ry

     iteration #244     ecut=    35.00 Ry     beta= 0.10
     Davidson diagonalization with overlap
     ethr =  3.76E-08,  avg # of iterations =  1.0

     negative rho (up, down):  2.250E-03 0.000E+00

     total cpu time spent up to now is     2104.5 secs

     total energy              =    -649.02441552 Ry
     estimated scf accuracy    <       0.00056387 Ry

     iteration #245     ecut=    35.00 Ry     beta= 0.10
     Davidson diagonalization with overlap
     ethr =  3.76E-08,  avg # of iterations =  1.0

     negative rho (up, down):  2.256E-03 0.000E+00

     total cpu time spent up to now is     2109.6 secs

     total energy              =    -649.02438871 Ry
     estimated scf accuracy    <       0.00048063 Ry

     iteration #246     ecut=    35.00 Ry     beta= 0.10
     Davidson diagonalization with overlap
     ethr =  3.76E-08,  avg # of iterations =  1.0

     negative rho (up, down):  2.255E-03 0.000E+00

     total cpu time spent up to now is     2114.5 secs

     total energy              =    -649.02439209 Ry
     estimated scf accuracy    <       0.00015315 Ry

     iteration #247     ecut=    35.00 Ry     beta= 0.10
     Davidson diagonalization with overlap
     ethr =  3.76E-08,  avg # of iterations =  1.0

     negative rho (up, down):  2.255E-03 0.000E+00

     total cpu time spent up to now is     2119.5 secs

     total energy              =    -649.02439086 Ry
     estimated scf accuracy    <       0.00013068 Ry

     iteration #248     ecut=    35.00 Ry     beta= 0.10
     Davidson diagonalization with overlap
     ethr =  3.76E-08,  avg # of iterations =  1.0

     negative rho (up, down):  2.256E-03 0.000E+00

     total cpu time spent up to now is     2124.5 secs

     total energy              =    -649.02439022 Ry
     estimated scf accuracy    <       0.00010050 Ry

     iteration #249     ecut=    35.00 Ry     beta= 0.10
     Davidson diagonalization with overlap
     ethr =  3.76E-08,  avg # of iterations =  1.0

     negative rho (up, down):  2.257E-03 0.000E+00

     total cpu time spent up to now is     2129.7 secs

     total energy              =    -649.02438976 Ry
     estimated scf accuracy    <       0.00008400 Ry

     iteration #250     ecut=    35.00 Ry     beta= 0.10
     Davidson diagonalization with overlap
     ethr =  3.76E-08,  avg # of iterations =  1.0

     negative rho (up, down):  2.255E-03 0.000E+00

     total cpu time spent up to now is     2134.7 secs

     total energy              =    -649.02469128 Ry
     estimated scf accuracy    <       0.00018235 Ry

     iteration #251     ecut=    35.00 Ry     beta= 0.10
     Davidson diagonalization with overlap
     ethr =  3.76E-08,  avg # of iterations =  1.0

     negative rho (up, down):  2.256E-03 0.000E+00

     total cpu time spent up to now is     2139.8 secs

     total energy              =    -649.02469021 Ry
     estimated scf accuracy    <       0.00017951 Ry

     iteration #252     ecut=    35.00 Ry     beta= 0.10
     Davidson diagonalization with overlap
     ethr =  3.76E-08,  avg # of iterations =  1.0

     negative rho (up, down):  2.256E-03 0.000E+00

     total cpu time spent up to now is     2146.1 secs

     total energy              =    -649.02438984 Ry
     estimated scf accuracy    <       0.00009729 Ry

     iteration #253     ecut=    35.00 Ry     beta= 0.10
     Davidson diagonalization with overlap
     ethr =  3.76E-08,  avg # of iterations =  1.0

     negative rho (up, down):  2.257E-03 0.000E+00

     total cpu time spent up to now is     2151.9 secs

     total energy              =    -649.02469141 Ry
     estimated scf accuracy    <       0.00018358 Ry

     iteration #254     ecut=    35.00 Ry     beta= 0.10
     Davidson diagonalization with overlap
     ethr =  3.76E-08,  avg # of iterations =  1.0

     negative rho (up, down):  2.259E-03 0.000E+00

     total cpu time spent up to now is     2157.4 secs

     total energy              =    -649.02469044 Ry
     estimated scf accuracy    <       0.00018114 Ry

     iteration #255     ecut=    35.00 Ry     beta= 0.10
     Davidson diagonalization with overlap
     ethr =  3.76E-08,  avg # of iterations =  1.0

     negative rho (up, down):  2.257E-03 0.000E+00

     total cpu time spent up to now is     2162.9 secs

     total energy              =    -649.02439017 Ry
     estimated scf accuracy    <       0.00008893 Ry

     iteration #256     ecut=    35.00 Ry     beta= 0.10
     Davidson diagonalization with overlap
     ethr =  3.76E-08,  avg # of iterations =  1.0

     negative rho (up, down):  2.259E-03 0.000E+00

     total cpu time spent up to now is     2168.3 secs

     total energy              =    -649.02469077 Ry
     estimated scf accuracy    <       0.00017960 Ry

     iteration #257     ecut=    35.00 Ry     beta= 0.10
     Davidson diagonalization with overlap
     ethr =  3.76E-08,  avg # of iterations =  1.0

     negative rho (up, down):  2.257E-03 0.000E+00

     total cpu time spent up to now is     2175.0 secs

     total energy              =    -649.02438978 Ry
     estimated scf accuracy    <       0.00008333 Ry

     iteration #258     ecut=    35.00 Ry     beta= 0.10
     Davidson diagonalization with overlap
     ethr =  3.76E-08,  avg # of iterations =  1.0

     negative rho (up, down):  2.260E-03 0.000E+00

     total cpu time spent up to now is     2180.7 secs

     total energy              =    -649.02469181 Ry
     estimated scf accuracy    <       0.00018365 Ry

     iteration #259     ecut=    35.00 Ry     beta= 0.10
     Davidson diagonalization with overlap
     ethr =  3.76E-08,  avg # of iterations =  1.0

     negative rho (up, down):  2.264E-03 0.000E+00

     total cpu time spent up to now is     2186.8 secs

     total energy              =    -649.02469153 Ry
     estimated scf accuracy    <       0.00018607 Ry

     iteration #260     ecut=    35.00 Ry     beta= 0.10
     Davidson diagonalization with overlap
     ethr =  3.76E-08,  avg # of iterations =  1.0

     negative rho (up, down):  2.267E-03 0.000E+00

     total cpu time spent up to now is     2191.8 secs

     total energy              =    -649.02468999 Ry
     estimated scf accuracy    <       0.00018692 Ry

     iteration #261     ecut=    35.00 Ry     beta= 0.10
     Davidson diagonalization with overlap
     ethr =  3.76E-08,  avg # of iterations =  1.0

     negative rho (up, down):  2.261E-03 0.000E+00

     total cpu time spent up to now is     2196.8 secs

     total energy              =    -649.02439009 Ry
     estimated scf accuracy    <       0.00008202 Ry

     iteration #262     ecut=    35.00 Ry     beta= 0.10
     Davidson diagonalization with overlap
     ethr =  3.76E-08,  avg # of iterations =  1.0

     negative rho (up, down):  2.258E-03 0.000E+00

     total cpu time spent up to now is     2202.9 secs

     total energy              =    -649.02439039 Ry
     estimated scf accuracy    <       0.00008901 Ry

     iteration #263     ecut=    35.00 Ry     beta= 0.10
     Davidson diagonalization with overlap
     ethr =  3.76E-08,  avg # of iterations =  1.0

     negative rho (up, down):  2.256E-03 0.000E+00

     total cpu time spent up to now is     2208.5 secs

     total energy              =    -649.02439047 Ry
     estimated scf accuracy    <       0.00008733 Ry

     iteration #264     ecut=    35.00 Ry     beta= 0.10
     Davidson diagonalization with overlap
     ethr =  3.76E-08,  avg # of iterations =  1.0

     negative rho (up, down):  2.255E-03 0.000E+00

     total cpu time spent up to now is     2214.4 secs

     total energy              =    -649.02439038 Ry
     estimated scf accuracy    <       0.00008523 Ry

     iteration #265     ecut=    35.00 Ry     beta= 0.10
     Davidson diagonalization with overlap
     ethr =  3.76E-08,  avg # of iterations =  1.0

     negative rho (up, down):  2.256E-03 0.000E+00

     total cpu time spent up to now is     2221.1 secs

     total energy              =    -649.02439011 Ry
     estimated scf accuracy    <       0.00008213 Ry

     iteration #266     ecut=    35.00 Ry     beta= 0.10
     Davidson diagonalization with overlap
     ethr =  3.76E-08,  avg # of iterations =  1.0

     negative rho (up, down):  2.256E-03 0.000E+00

     total cpu time spent up to now is     2226.8 secs

     total energy              =    -649.02469057 Ry
     estimated scf accuracy    <       0.00018166 Ry

     iteration #267     ecut=    35.00 Ry     beta= 0.10
     Davidson diagonalization with overlap
     ethr =  3.76E-08,  avg # of iterations =  1.0

     negative rho (up, down):  2.255E-03 0.000E+00

     total cpu time spent up to now is     2232.4 secs

     total energy              =    -649.02439075 Ry
     estimated scf accuracy    <       0.00009149 Ry

     iteration #268     ecut=    35.00 Ry     beta= 0.10
     Davidson diagonalization with overlap
     ethr =  3.76E-08,  avg # of iterations =  1.0
