
     Program PWSCF v.6.7MaX starts on 29Oct2021 at 14:21:10 

     This program is part of the open-source Quantum ESPRESSO suite
     for quantum simulation of materials; please cite
         "P. Giannozzi et al., J. Phys.:Condens. Matter 21 395502 (2009);
         "P. Giannozzi et al., J. Phys.:Condens. Matter 29 465901 (2017);
          URL http://www.quantum-espresso.org", 
     in publications or presentations arising from this work. More details at
     http://www.quantum-espresso.org/quote

     Parallel version (MPI), running on     2 processors

     MPI processes distributed on     1 nodes
     R & G space division:  proc/nbgrp/npool/nimage =       2
     Waiting for input...
     Reading input from standard input

     Current dimensions of program PWSCF are:
     Max number of different atomic species (ntypx) = 10
     Max number of k-points (npk) =  40000
     Max angular momentum in pseudopotentials (lmaxx) =  3
     file B.pbe-n-rrkjus_psl.1.0.0.UPF: wavefunction(s)  2S renormalized

     Subspace diagonalization in iterative solution of the eigenvalue problem:
     a serial algorithm will be used


     Parallelization info
     --------------------
     sticks:   dense  smooth     PW     G-vecs:    dense   smooth      PW
     Min         419     251     80                14247     6607    1166
     Max         420     252     81                14250     6610    1169
     Sum         839     503    161                28497    13217    2335



     bravais-lattice index     =            8
     lattice parameter (alat)  =       9.4261  a.u.
     unit-cell volume          =     595.1740 (a.u.)^3
     number of atoms/cell      =            5
     number of atomic types    =            1
     number of electrons       =        15.00
     number of Kohn-Sham states=           12
     kinetic-energy cutoff     =      30.0000  Ry
     charge density cutoff     =     200.0000  Ry
     scf convergence threshold =      1.0E-06
     mixing beta               =       0.1000
     number of iterations used =            8  plain     mixing
     energy convergence thresh.=      1.0E-04
     force convergence thresh. =      1.0E-03
     press convergence thresh. =      5.0E-01
     Exchange-correlation= PBE
                           (   1   4   3   4   0   0   0)
     nstep                     =           50


     celldm(1)=   9.426087  celldm(2)=   0.592200  celldm(3)=   1.200000
     celldm(4)=   0.000000  celldm(5)=   0.000000  celldm(6)=   0.000000

     crystal axes: (cart. coord. in units of alat)
               a(1) = (   1.000000   0.000000   0.000000 )  
               a(2) = (   0.000000   0.592200   0.000000 )  
               a(3) = (   0.000000   0.000000   1.200000 )  

     reciprocal axes: (cart. coord. in units 2 pi/alat)
               b(1) = (  1.000000  0.000000  0.000000 )  
               b(2) = (  0.000000  1.688619  0.000000 )  
               b(3) = (  0.000000  0.000000  0.833333 )  


     PseudoPot. # 1 for B  read from file:
     ./B.pbe-n-rrkjus_psl.1.0.0.UPF
     MD5 check sum: 21bc42b8719306ef1fe0545c7dabf1c6
     Pseudo is Ultrasoft + core correction, Zval =  3.0
     Generated using &quot;atomic&quot; code by A. Dal Corso  v.6.3MaX
     Using radial grid of 1059 points,  4 beta functions with: 
                l(1) =   0
                l(2) =   0
                l(3) =   1
                l(4) =   1
     Q(r) pseudized with 0 coefficients 


     atomic species   valence    mass     pseudopotential
        B              3.00    10.81100     B ( 1.00)

      4 Sym. Ops. (no inversion) found



   Cartesian axes

     site n.     atom                  positions (alat units)
         1           B   tau(   1) = (   0.0000000   0.0000000   0.0000000  )
         2           B   tau(   2) = (   0.3333300   0.0000000   0.0000000  )
         3           B   tau(   3) = (   0.6666700   0.0000000   0.0000000  )
         4           B   tau(   4) = (   0.1666700   0.2961000   0.0000000  )
         5           B   tau(   5) = (   0.5000000   0.2961000   0.0000000  )

     number of k points=     6  Marzari-Vanderbilt smearing, width (Ry)=  0.0050
                       cart. coord. in units 2pi/alat
        k(    1) = (   0.0000000   0.0000000   0.0000000), wk =   0.2500000
        k(    2) = (   0.0000000   0.4221547   0.0000000), wk =   0.5000000
        k(    3) = (   0.0000000  -0.8443094   0.0000000), wk =   0.2500000
        k(    4) = (  -0.5000000   0.0000000   0.0000000), wk =   0.2500000
        k(    5) = (  -0.5000000   0.4221547   0.0000000), wk =   0.5000000
        k(    6) = (  -0.5000000  -0.8443094   0.0000000), wk =   0.2500000

     Dense  grid:    28497 G-vectors     FFT dimensions: (  45,  25,  54)

     Smooth grid:    13217 G-vectors     FFT dimensions: (  36,  20,  40)

     Estimated max dynamical RAM per process >      22.45 MB

     Estimated total dynamical RAM >      44.90 MB

     Check: negative core charge=   -0.000005

     Initial potential from superposition of free atoms

     starting charge   14.99859, renormalised to   15.00000
     Starting wfcs are   20 randomized atomic wfcs

     total cpu time spent up to now is        0.6 secs

     Self-consistent Calculation

     iteration #  1     ecut=    30.00 Ry     beta= 0.10
     Davidson diagonalization with overlap
     ethr =  1.00E-02,  avg # of iterations =  2.0

     total cpu time spent up to now is        0.8 secs

     total energy              =     -31.56043848 Ry
     estimated scf accuracy    <       0.53112988 Ry

     iteration #  2     ecut=    30.00 Ry     beta= 0.10
     Davidson diagonalization with overlap
     ethr =  3.54E-03,  avg # of iterations =  1.0

     negative rho (up, down):  7.849E-03 0.000E+00

     total cpu time spent up to now is        0.9 secs

     total energy              =     -31.29041242 Ry
     estimated scf accuracy    <       0.41327046 Ry

     iteration #  3     ecut=    30.00 Ry     beta= 0.10
     Davidson diagonalization with overlap
     ethr =  2.76E-03,  avg # of iterations =  3.0

     negative rho (up, down):  1.136E-03 0.000E+00

     total cpu time spent up to now is        1.1 secs

     total energy              =     -31.36987098 Ry
     estimated scf accuracy    <       0.04621551 Ry

     iteration #  4     ecut=    30.00 Ry     beta= 0.10
     Davidson diagonalization with overlap
     ethr =  3.08E-04,  avg # of iterations =  3.5

     negative rho (up, down):  3.258E-03 0.000E+00

     total cpu time spent up to now is        1.3 secs

     total energy              =     -31.37755662 Ry
     estimated scf accuracy    <       0.01133718 Ry

     iteration #  5     ecut=    30.00 Ry     beta= 0.10
     Davidson diagonalization with overlap
     ethr =  7.56E-05,  avg # of iterations =  2.5

     negative rho (up, down):  4.859E-03 0.000E+00

     total cpu time spent up to now is        1.5 secs

     total energy              =     -31.38143697 Ry
     estimated scf accuracy    <       0.00239886 Ry

     iteration #  6     ecut=    30.00 Ry     beta= 0.10
     Davidson diagonalization with overlap
     ethr =  1.60E-05,  avg # of iterations =  3.3

     negative rho (up, down):  5.297E-03 0.000E+00

     total cpu time spent up to now is        1.7 secs

     total energy              =     -31.38241156 Ry
     estimated scf accuracy    <       0.00634982 Ry

     iteration #  7     ecut=    30.00 Ry     beta= 0.10
     Davidson diagonalization with overlap
     ethr =  1.60E-05,  avg # of iterations =  1.0

     negative rho (up, down):  5.026E-03 0.000E+00

     total cpu time spent up to now is        1.8 secs

     total energy              =     -31.37994730 Ry
     estimated scf accuracy    <       0.00457143 Ry

     iteration #  8     ecut=    30.00 Ry     beta= 0.10
     Davidson diagonalization with overlap
     ethr =  1.60E-05,  avg # of iterations =  2.0

     negative rho (up, down):  4.252E-03 0.000E+00

     total cpu time spent up to now is        2.0 secs

     total energy              =     -31.38137978 Ry
     estimated scf accuracy    <       0.00008698 Ry

     iteration #  9     ecut=    30.00 Ry     beta= 0.10
     Davidson diagonalization with overlap
     ethr =  5.80E-07,  avg # of iterations =  2.2

     negative rho (up, down):  3.726E-03 0.000E+00

     total cpu time spent up to now is        2.1 secs

     total energy              =     -31.38192164 Ry
     estimated scf accuracy    <       0.00008718 Ry

     iteration # 10     ecut=    30.00 Ry     beta= 0.10
     Davidson diagonalization with overlap
     ethr =  5.80E-07,  avg # of iterations =  1.0

     negative rho (up, down):  3.736E-03 0.000E+00

     total cpu time spent up to now is        2.3 secs

     total energy              =     -31.38252830 Ry
     estimated scf accuracy    <       0.00010973 Ry

     iteration # 11     ecut=    30.00 Ry     beta= 0.10
     Davidson diagonalization with overlap
     ethr =  5.80E-07,  avg # of iterations =  2.0

     negative rho (up, down):  3.065E-03 0.000E+00

     total cpu time spent up to now is        2.4 secs

     total energy              =     -31.38293082 Ry
     estimated scf accuracy    <       0.00015366 Ry

     iteration # 12     ecut=    30.00 Ry     beta= 0.10
     Davidson diagonalization with overlap
     ethr =  5.80E-07,  avg # of iterations =  2.0

     negative rho (up, down):  2.642E-03 0.000E+00

     total cpu time spent up to now is        2.6 secs

     total energy              =     -31.38330704 Ry
     estimated scf accuracy    <       0.00005447 Ry

     iteration # 13     ecut=    30.00 Ry     beta= 0.10
     Davidson diagonalization with overlap
     ethr =  3.63E-07,  avg # of iterations =  1.0

     negative rho (up, down):  2.281E-03 0.000E+00

     total cpu time spent up to now is        2.7 secs

     total energy              =     -31.38364931 Ry
     estimated scf accuracy    <       0.00003870 Ry

     iteration # 14     ecut=    30.00 Ry     beta= 0.10
     Davidson diagonalization with overlap
     ethr =  2.58E-07,  avg # of iterations =  1.2

     negative rho (up, down):  1.953E-03 0.000E+00

     total cpu time spent up to now is        2.9 secs

     total energy              =     -31.38391918 Ry
     estimated scf accuracy    <       0.00003940 Ry

     iteration # 15     ecut=    30.00 Ry     beta= 0.10
     Davidson diagonalization with overlap
     ethr =  2.58E-07,  avg # of iterations =  1.2

     negative rho (up, down):  1.655E-03 0.000E+00

     total cpu time spent up to now is        3.0 secs

     total energy              =     -31.38417211 Ry
     estimated scf accuracy    <       0.00001885 Ry

     iteration # 16     ecut=    30.00 Ry     beta= 0.10
     Davidson diagonalization with overlap
     ethr =  1.26E-07,  avg # of iterations =  1.2

     negative rho (up, down):  1.424E-03 0.000E+00

     total cpu time spent up to now is        3.1 secs

     total energy              =     -31.38437173 Ry
     estimated scf accuracy    <       0.00001081 Ry

     iteration # 17     ecut=    30.00 Ry     beta= 0.10
     Davidson diagonalization with overlap
     ethr =  7.20E-08,  avg # of iterations =  1.3

     negative rho (up, down):  1.217E-03 0.000E+00

     total cpu time spent up to now is        3.3 secs

     total energy              =     -31.38454133 Ry
     estimated scf accuracy    <       0.00000501 Ry

     iteration # 18     ecut=    30.00 Ry     beta= 0.10
     Davidson diagonalization with overlap
     ethr =  3.34E-08,  avg # of iterations =  2.0

     negative rho (up, down):  4.778E-04 0.000E+00

     total cpu time spent up to now is        3.4 secs

     End of self-consistent calculation

          k = 0.0000 0.0000 0.0000 (  1631 PWs)   bands (ev):

   -13.4257  -9.0040  -7.0192  -4.8712  -4.2521   0.7078   0.7089   1.2273
     3.0410   4.0756   4.4329   5.0869

          k = 0.0000 0.4222 0.0000 (  1650 PWs)   bands (ev):

   -12.7322  -8.5618  -7.5254  -6.1119  -3.2453  -2.0375  -0.9149   2.2140
     3.4313   5.1043   5.2883   6.5236

          k = 0.0000-0.8443 0.0000 (  1670 PWs)   bands (ev):

   -10.9280 -10.3902  -7.9145  -4.1421  -4.0071  -3.8963  -0.7613   0.3829
     4.8754   5.0530   5.3441   8.0338

          k =-0.5000 0.0000 0.0000 (  1632 PWs)   bands (ev):

   -13.2220 -10.2585  -4.6248  -4.0243  -3.7156  -2.5315  -1.1970  -0.5494
     4.9291   5.6207   5.7334   6.6838

          k =-0.5000 0.4222 0.0000 (  1658 PWs)   bands (ev):

   -12.5378  -9.6267  -7.2890  -4.2906  -2.7295  -2.6874  -1.7330  -0.2978
     5.2636   6.2415   6.8677   7.1889

          k =-0.5000-0.8443 0.0000 (  1664 PWs)   bands (ev):

   -10.7361 -10.2384  -8.5106  -5.8967  -3.3049  -1.4149   0.1352   0.6243
     1.3972   4.3753   5.8169   8.2017

     the Fermi energy is     0.7141 ev

!    total energy              =     -31.38512137 Ry
     estimated scf accuracy    <       0.00000021 Ry
     smearing contrib. (-TS)   =      -0.00021158 Ry
     internal energy E=F+TS    =     -31.38490980 Ry

     The total energy is F=E-TS. E is the sum of the following terms:
     one-electron contribution =     -39.00432152 Ry
     hartree contribution      =      23.87572727 Ry
     xc contribution           =     -14.63613496 Ry
     ewald contribution        =      -1.62018058 Ry

     convergence has been achieved in  18 iterations

     negative rho (up, down):  4.778E-04 0.000E+00

     Forces acting on atoms (cartesian axes, Ry/au):

     atom    1 type  1   force =    -0.04017951    0.00000000    0.00000000
     atom    2 type  1   force =     0.00002766    0.00000000    0.00000000
     atom    3 type  1   force =     0.04016138    0.00000000    0.00000000
     atom    4 type  1   force =    -0.01170704    0.00000000    0.00000000
     atom    5 type  1   force =     0.01169752    0.00000000    0.00000000

     Total force =     0.000000     Total SCF correction =     0.000000


     Computing stress (Cartesian axis) and pressure


     negative rho (up, down):  4.778E-04 0.000E+00
          total   stress  (Ry/bohr**3)                   (kbar)     P=        1.94
   0.00000496   0.00000000   0.00000000            0.73        0.00        0.00
   0.00000000  -0.00000068   0.00000000            0.00       -0.10        0.00
   0.00000000   0.00000000   0.00003527            0.00        0.00        5.19


     BFGS Geometry Optimization
     Energy error            =      0.0E+00
     Gradient error          =      0.0E+00
     Cell gradient error     =      5.0E-06


     number of scf cycles    =   1
     number of bfgs steps    =   0

     enthalpy new            =     -31.3851213724 Ry

     new trust radius        =       0.0006056195 bohr
     new conv_thr            =       0.0000010000 Ry

     new unit-cell volume =    595.23782 a.u.^3 (    88.20514 Ang^3 )
     density =      1.01763 g/cm^3

CELL_PARAMETERS (alat=  9.42608684)
   1.000124122   0.000000000   0.000000000
   0.000000000   0.592189986   0.000000000
   0.000000000   0.000000000   1.200000000

ATOMIC_POSITIONS (crystal)
B             0.0000000000        0.0000000000        0.0000000000    0   0   0
B             0.3333300000        0.0000000000        0.0000000000    0   0   0
B             0.6666700000        0.0000000000        0.0000000000    0   0   0
B             0.1666700000        0.5000000000        0.0000000000    0   0   0
B             0.5000000000        0.5000000000        0.0000000000    0   0   0



     Writing output data file ./b12_22.save/
     NEW-OLD atomic charge density approx. for the potential

     Check: negative core charge=   -0.000005

     negative rho (up, down):  4.772E-04 0.000E+00
     extrapolated charge   15.00161, renormalised to   15.00000

     total cpu time spent up to now is        5.0 secs

     Self-consistent Calculation

     iteration #  1     ecut=    30.00 Ry     beta= 0.10
     Davidson diagonalization with overlap
     ethr =  1.00E-06,  avg # of iterations =  2.8

     Threshold (ethr) on eigenvalues was too large:
     Diagonalizing with lowered threshold

     Davidson diagonalization with overlap
     ethr =  1.23E-09,  avg # of iterations =  2.5

     negative rho (up, down):  4.831E-04 0.000E+00

     total cpu time spent up to now is        5.3 secs

     End of self-consistent calculation

          k = 0.0000 0.0000 0.0000 (  1631 PWs)   bands (ev):

   -13.4211  -8.9998  -7.0152  -4.8660  -4.2480   0.7114   0.7125   1.2293
     3.0446   4.1350   4.4359   5.0912

          k = 0.0000 0.4222 0.0000 (  1650 PWs)   bands (ev):

   -12.7276  -8.5574  -7.5207  -6.1076  -3.2411  -2.0345  -0.9110   2.2160
     3.4347   5.1629   5.2925   6.5273

          k = 0.0000-0.8443 0.0000 (  1670 PWs)   bands (ev):

   -10.9225 -10.3865  -7.9094  -4.1369  -4.0041  -3.8940  -0.7561   0.3855
     4.8786   5.0567   5.3448   8.0837

          k =-0.4999 0.0000 0.0000 (  1632 PWs)   bands (ev):

   -13.2175 -10.2541  -4.6198  -4.0193  -3.7118  -2.5297  -1.1934  -0.5449
     4.9573   5.6564   5.7853   6.6923

          k =-0.4999 0.4222 0.0000 (  1658 PWs)   bands (ev):

   -12.5332  -9.6221  -7.2843  -4.2859  -2.7250  -2.6836  -1.7314  -0.2940
     5.2673   6.2955   6.8727   7.1910

          k =-0.4999-0.8443 0.0000 (  1664 PWs)   bands (ev):

   -10.7306 -10.2348  -8.5054  -5.8932  -3.2996  -1.4133   0.1403   0.6266
     1.4016   4.3774   5.8183   8.2022

     the Fermi energy is     0.7176 ev

!    total energy              =     -31.38512288 Ry
     estimated scf accuracy    <       0.00000026 Ry
     smearing contrib. (-TS)   =      -0.00021025 Ry
     internal energy E=F+TS    =     -31.38491262 Ry

     The total energy is F=E-TS. E is the sum of the following terms:
     one-electron contribution =     -38.99883696 Ry
     hartree contribution      =      23.87199857 Ry
     xc contribution           =     -14.63537618 Ry
     ewald contribution        =      -1.62269806 Ry

     convergence has been achieved in   1 iterations

     negative rho (up, down):  4.831E-04 0.000E+00

     Forces acting on atoms (cartesian axes, Ry/au):

     atom    1 type  1   force =    -0.04021812    0.00000000    0.00000000
     atom    2 type  1   force =     0.00002891    0.00000000    0.00000000
     atom    3 type  1   force =     0.04019801    0.00000000    0.00000000
     atom    4 type  1   force =    -0.01155251    0.00000000    0.00000000
     atom    5 type  1   force =     0.01154372    0.00000000    0.00000000

     Total force =     0.000000     Total SCF correction =     0.000000


     Computing stress (Cartesian axis) and pressure


     negative rho (up, down):  4.831E-04 0.000E+00
          total   stress  (Ry/bohr**3)                   (kbar)     P=        1.62
   0.00000294   0.00000000   0.00000000            0.43        0.00        0.00
   0.00000000  -0.00000080   0.00000000            0.00       -0.12        0.00
   0.00000000   0.00000000   0.00003093            0.00        0.00        4.55

     Energy error            =      1.5E-06
     Gradient error          =      0.0E+00
     Cell gradient error     =      2.9E-06


     bfgs converged in   2 scf cycles and   1 bfgs steps
     (criteria: energy <  1.0E-04 Ry, force <  1.0E-03Ry/Bohr, cell <  5.0E-01kbar)

     End of BFGS Geometry Optimization

     Final enthalpy =     -31.3851228755 Ry

     File ./b12_22.bfgs deleted, as requested
Begin final coordinates
     new unit-cell volume =    595.23782 a.u.^3 (    88.20514 Ang^3 )
     density =      1.01763 g/cm^3

CELL_PARAMETERS (alat=  9.42608684)
   1.000124122   0.000000000   0.000000000
   0.000000000   0.592189986   0.000000000
   0.000000000   0.000000000   1.200000000

ATOMIC_POSITIONS (crystal)
B             0.0000000000        0.0000000000        0.0000000000    0   0   0
B             0.3333300000        0.0000000000        0.0000000000    0   0   0
B             0.6666700000        0.0000000000        0.0000000000    0   0   0
B             0.1666700000        0.5000000000        0.0000000000    0   0   0
B             0.5000000000        0.5000000000        0.0000000000    0   0   0
End final coordinates



     Writing output data file ./b12_22.save/

     Final scf calculation at the relaxed structure.
     The G-vectors are recalculated for the final unit cell
     Results may differ from those at the preceding step.

     Parallelization info
     --------------------
     sticks:   dense  smooth     PW     G-vecs:    dense   smooth      PW
     Min         419     251     80                14247     6607    1166
     Max         420     252     81                14250     6610    1169
     Sum         839     503    161                28497    13217    2335



     bravais-lattice index     =            8
     lattice parameter (alat)  =       9.4261  a.u.
     unit-cell volume          =     595.2378 (a.u.)^3
     number of atoms/cell      =            5
     number of atomic types    =            1
     number of electrons       =        15.00
     number of Kohn-Sham states=           12
     kinetic-energy cutoff     =      30.0000  Ry
     charge density cutoff     =     200.0000  Ry
     scf convergence threshold =      1.0E-06
     mixing beta               =       0.1000
     number of iterations used =            8  plain     mixing
     press convergence thresh. =      5.0E-01
     Exchange-correlation= PBE
                           (   1   4   3   4   0   0   0)

     celldm(1)=   9.426087  celldm(2)=   0.592200  celldm(3)=   1.200000
     celldm(4)=   0.000000  celldm(5)=   0.000000  celldm(6)=   0.000000

     crystal axes: (cart. coord. in units of alat)
               a(1) = (   1.000124   0.000000   0.000000 )  
               a(2) = (   0.000000   0.592190   0.000000 )  
               a(3) = (   0.000000   0.000000   1.200000 )  

     reciprocal axes: (cart. coord. in units 2 pi/alat)
               b(1) = (  0.999876  0.000000  0.000000 )  
               b(2) = (  0.000000  1.688647  0.000000 )  
               b(3) = (  0.000000  0.000000  0.833333 )  


     PseudoPot. # 1 for B  read from file:
     ./B.pbe-n-rrkjus_psl.1.0.0.UPF
     MD5 check sum: 21bc42b8719306ef1fe0545c7dabf1c6
     Pseudo is Ultrasoft + core correction, Zval =  3.0
     Generated using &quot;atomic&quot; code by A. Dal Corso  v.6.3MaX
     Using radial grid of 1059 points,  4 beta functions with: 
                l(1) =   0
                l(2) =   0
                l(3) =   1
                l(4) =   1
     Q(r) pseudized with 0 coefficients 


     atomic species   valence    mass     pseudopotential
        B              3.00    10.81100     B ( 1.00)

      4 Sym. Ops. (no inversion) found



   Cartesian axes

     site n.     atom                  positions (alat units)
         1           B   tau(   1) = (   0.0000000   0.0000000   0.0000000  )
         2           B   tau(   2) = (   0.3333714   0.0000000   0.0000000  )
         3           B   tau(   3) = (   0.6667527   0.0000000   0.0000000  )
         4           B   tau(   4) = (   0.1666907   0.2960950   0.0000000  )
         5           B   tau(   5) = (   0.5000621   0.2960950   0.0000000  )

     number of k points=     6  Marzari-Vanderbilt smearing, width (Ry)=  0.0050
                       cart. coord. in units 2pi/alat
        k(    1) = (   0.0000000   0.0000000   0.0000000), wk =   0.2500000
        k(    2) = (   0.0000000   0.4221618   0.0000000), wk =   0.5000000
        k(    3) = (   0.0000000  -0.8443236   0.0000000), wk =   0.2500000
        k(    4) = (  -0.4999379   0.0000000   0.0000000), wk =   0.2500000
        k(    5) = (  -0.4999379   0.4221618   0.0000000), wk =   0.5000000
        k(    6) = (  -0.4999379  -0.8443236   0.0000000), wk =   0.2500000

     Dense  grid:    28497 G-vectors     FFT dimensions: (  45,  25,  54)

     Smooth grid:    13217 G-vectors     FFT dimensions: (  36,  20,  40)

     Estimated max dynamical RAM per process >      22.56 MB

     Estimated total dynamical RAM >      45.12 MB

     Check: negative core charge=   -0.000005

     Initial potential from superposition of free atoms

     starting charge   14.99859, renormalised to   15.00000
     Starting wfcs are   20 randomized atomic wfcs

     total cpu time spent up to now is        6.9 secs

     Self-consistent Calculation

     iteration #  1     ecut=    30.00 Ry     beta= 0.10
     Davidson diagonalization with overlap
     ethr =  1.00E-06,  avg # of iterations = 11.8

     total cpu time spent up to now is        7.3 secs

     total energy              =     -31.55951147 Ry
     estimated scf accuracy    <       0.55986520 Ry

     iteration #  2     ecut=    30.00 Ry     beta= 0.10
     Davidson diagonalization with overlap
     ethr =  3.73E-03,  avg # of iterations =  1.0

     negative rho (up, down):  3.248E-03 0.000E+00

     total cpu time spent up to now is        7.4 secs

     total energy              =     -31.31103078 Ry
     estimated scf accuracy    <       0.41167111 Ry

     iteration #  3     ecut=    30.00 Ry     beta= 0.10
     Davidson diagonalization with overlap
     ethr =  2.74E-03,  avg # of iterations =  3.0

     negative rho (up, down):  1.619E-03 0.000E+00

     total cpu time spent up to now is        7.6 secs

     total energy              =     -31.37829510 Ry
     estimated scf accuracy    <       0.01084213 Ry

     iteration #  4     ecut=    30.00 Ry     beta= 0.10
     Davidson diagonalization with overlap
     ethr =  7.23E-05,  avg # of iterations =  4.5

     negative rho (up, down):  4.071E-03 0.000E+00

     total cpu time spent up to now is        7.8 secs

     total energy              =     -31.37839589 Ry
     estimated scf accuracy    <       0.00575889 Ry

     iteration #  5     ecut=    30.00 Ry     beta= 0.10
     Davidson diagonalization with overlap
     ethr =  3.84E-05,  avg # of iterations =  2.0

     negative rho (up, down):  4.392E-03 0.000E+00

     total cpu time spent up to now is        7.9 secs

     total energy              =     -31.38023703 Ry
     estimated scf accuracy    <       0.00122009 Ry

     iteration #  6     ecut=    30.00 Ry     beta= 0.10
     Davidson diagonalization with overlap
     ethr =  8.13E-06,  avg # of iterations =  2.0

     negative rho (up, down):  4.798E-03 0.000E+00

     total cpu time spent up to now is        8.1 secs

     total energy              =     -31.38023622 Ry
     estimated scf accuracy    <       0.00123170 Ry

     iteration #  7     ecut=    30.00 Ry     beta= 0.10
     Davidson diagonalization with overlap
     ethr =  8.13E-06,  avg # of iterations =  2.0

     negative rho (up, down):  5.347E-03 0.000E+00

     total cpu time spent up to now is        8.2 secs

     total energy              =     -31.38060795 Ry
     estimated scf accuracy    <       0.00030026 Ry

     iteration #  8     ecut=    30.00 Ry     beta= 0.10
     Davidson diagonalization with overlap
     ethr =  2.00E-06,  avg # of iterations =  2.0

     negative rho (up, down):  4.503E-03 0.000E+00

     total cpu time spent up to now is        8.4 secs

     total energy              =     -31.38132675 Ry
     estimated scf accuracy    <       0.00009887 Ry

     iteration #  9     ecut=    30.00 Ry     beta= 0.10
     Davidson diagonalization with overlap
     ethr =  6.59E-07,  avg # of iterations =  2.0

     negative rho (up, down):  3.896E-03 0.000E+00

     total cpu time spent up to now is        8.6 secs

     total energy              =     -31.38192976 Ry
     estimated scf accuracy    <       0.00003274 Ry

     iteration # 10     ecut=    30.00 Ry     beta= 0.10
     Davidson diagonalization with overlap
     ethr =  2.18E-07,  avg # of iterations =  2.0

     negative rho (up, down):  3.377E-03 0.000E+00

     total cpu time spent up to now is        8.7 secs

     total energy              =     -31.38245603 Ry
     estimated scf accuracy    <       0.00000424 Ry

     iteration # 11     ecut=    30.00 Ry     beta= 0.10
     Davidson diagonalization with overlap
     ethr =  2.83E-08,  avg # of iterations =  2.0

     negative rho (up, down):  2.891E-03 0.000E+00

     total cpu time spent up to now is        8.9 secs

     total energy              =     -31.38293444 Ry
     estimated scf accuracy    <       0.00000258 Ry

     iteration # 12     ecut=    30.00 Ry     beta= 0.10
     Davidson diagonalization with overlap
     ethr =  1.72E-08,  avg # of iterations =  2.0

     negative rho (up, down):  4.652E-04 0.000E+00

     total cpu time spent up to now is        9.0 secs

     End of self-consistent calculation

          k = 0.0000 0.0000 0.0000 (  1631 PWs)   bands (ev):

   -13.4296  -9.0079  -7.0232  -4.8738  -4.2571   0.7034   0.7045   1.2215
     3.0339   3.9490   4.4264   5.0829

          k = 0.0000 0.4222 0.0000 (  1650 PWs)   bands (ev):

   -12.7361  -8.5654  -7.5287  -6.1156  -3.2501  -2.0423  -0.9188   2.2083
     3.4259   4.9790   5.2821   6.5177

          k = 0.0000-0.8443 0.0000 (  1670 PWs)   bands (ev):

   -10.9309 -10.3945  -7.9175  -4.1449  -4.0119  -3.9018  -0.7650   0.3773
     4.8709   5.0477   5.3373   7.9217

          k =-0.4999 0.0000 0.0000 (  1632 PWs)   bands (ev):

   -13.2261 -10.2622  -4.6276  -4.0274  -3.7207  -2.5376  -1.2027  -0.5528
     4.8660   5.5564   5.6142   6.6691

          k =-0.4999 0.4222 0.0000 (  1658 PWs)   bands (ev):

   -12.5417  -9.6302  -7.2923  -4.2938  -2.7329  -2.6924  -1.7392  -0.3031
     5.2591   6.1279   6.8562   7.1829

          k =-0.4999-0.8443 0.0000 (  1664 PWs)   bands (ev):

   -10.7391 -10.2428  -8.5135  -5.9010  -3.3075  -1.4210   0.1311   0.6189
     1.3935   4.3674   5.8099   8.1935

     the Fermi energy is     0.7096 ev

!    total energy              =     -31.38511021 Ry
     estimated scf accuracy    <       0.00000052 Ry
     smearing contrib. (-TS)   =      -0.00021052 Ry
     internal energy E=F+TS    =     -31.38489969 Ry

     The total energy is F=E-TS. E is the sum of the following terms:
     one-electron contribution =     -38.99534632 Ry
     hartree contribution      =      23.86807601 Ry
     xc contribution           =     -14.63493132 Ry
     ewald contribution        =      -1.62269806 Ry

     convergence has been achieved in  12 iterations

     negative rho (up, down):  4.652E-04 0.000E+00

     Forces acting on atoms (cartesian axes, Ry/au):

     atom    1 type  1   force =    -0.04023103    0.00000000    0.00000000
     atom    2 type  1   force =     0.00002752    0.00000000    0.00000000
     atom    3 type  1   force =     0.04021283    0.00000000    0.00000000
     atom    4 type  1   force =    -0.01148533    0.00000000    0.00000000
     atom    5 type  1   force =     0.01147601    0.00000000    0.00000000

     Total force =     0.000000     Total SCF correction =     0.000000


     Computing stress (Cartesian axis) and pressure


     negative rho (up, down):  4.652E-04 0.000E+00
          total   stress  (Ry/bohr**3)                   (kbar)     P=        1.73
   0.00000337   0.00000000   0.00000000            0.50        0.00        0.00
   0.00000000   0.00000014   0.00000000            0.00        0.02        0.00
   0.00000000   0.00000000   0.00003171            0.00        0.00        4.67


     Writing output data file ./b12_22.save/

     init_run     :      1.12s CPU      1.14s WALL (       2 calls)
     electrons    :      5.21s CPU      5.28s WALL (       3 calls)
     update_pot   :      0.50s CPU      0.50s WALL (       1 calls)
     forces       :      0.94s CPU      0.94s WALL (       3 calls)
     stress       :      2.14s CPU      2.14s WALL (       3 calls)

     Called by init_run:
     wfcinit      :      0.13s CPU      0.14s WALL (       2 calls)
     potinit      :      0.33s CPU      0.33s WALL (       2 calls)
     hinit0       :      0.58s CPU      0.58s WALL (       2 calls)

     Called by electrons:
     c_bands      :      3.39s CPU      3.46s WALL (      32 calls)
     sum_band     :      0.90s CPU      0.90s WALL (      32 calls)
     v_of_rho     :      0.45s CPU      0.45s WALL (      34 calls)
     newd         :      0.44s CPU      0.44s WALL (      34 calls)
     mix_rho      :      0.06s CPU      0.06s WALL (      32 calls)

     Called by c_bands:
     init_us_2    :      0.07s CPU      0.07s WALL (     432 calls)
     cegterg      :      3.27s CPU      3.33s WALL (     192 calls)

     Called by *egterg:
     cdiaghg      :      0.09s CPU      0.09s WALL (     630 calls)
     h_psi        :      2.36s CPU      2.42s WALL (     654 calls)
     s_psi        :      0.27s CPU      0.27s WALL (     654 calls)
     g_psi        :      0.01s CPU      0.01s WALL (     450 calls)

     Called by h_psi:
     h_psi:calbec :      0.33s CPU      0.33s WALL (     654 calls)
     vloc_psi     :      1.75s CPU      1.79s WALL (     654 calls)
     add_vuspsi   :      0.28s CPU      0.28s WALL (     654 calls)

     General routines
     calbec       :      0.51s CPU      0.52s WALL (     936 calls)
     fft          :      0.27s CPU      0.27s WALL (     513 calls)
     ffts         :      0.02s CPU      0.02s WALL (      66 calls)
     fftw         :      1.88s CPU      1.92s WALL (   14566 calls)
     interpolate  :      0.03s CPU      0.03s WALL (      34 calls)

     Parallel routines
     fft_scatt_xy :      0.27s CPU      0.28s WALL (   15145 calls)
     fft_scatt_yz :      0.36s CPU      0.37s WALL (   15145 calls)

     PWSCF        :      9.99s CPU     10.09s WALL


   This run was terminated on:  14:21:20  29Oct2021            

=------------------------------------------------------------------------------=
   JOB DONE.
=------------------------------------------------------------------------------=
