
     Program PWSCF v.6.7MaX starts on 29Oct2021 at 15:13:17 

     This program is part of the open-source Quantum ESPRESSO suite
     for quantum simulation of materials; please cite
         "P. Giannozzi et al., J. Phys.:Condens. Matter 21 395502 (2009);
         "P. Giannozzi et al., J. Phys.:Condens. Matter 29 465901 (2017);
          URL http://www.quantum-espresso.org", 
     in publications or presentations arising from this work. More details at
     http://www.quantum-espresso.org/quote

     Parallel version (MPI), running on     2 processors

     MPI processes distributed on     1 nodes
     R & G space division:  proc/nbgrp/npool/nimage =       2
     Waiting for input...
     Reading input from standard input

     Current dimensions of program PWSCF are:
     Max number of different atomic species (ntypx) = 10
     Max number of k-points (npk) =  40000
     Max angular momentum in pseudopotentials (lmaxx) =  3
     file B.pbe-n-rrkjus_psl.1.0.0.UPF: wavefunction(s)  2S renormalized

     Subspace diagonalization in iterative solution of the eigenvalue problem:
     a serial algorithm will be used


     Parallelization info
     --------------------
     sticks:   dense  smooth     PW     G-vecs:    dense   smooth      PW
     Min        1688    1020    285                68116    31691    4717
     Max        1689    1021    286                68117    31692    4718
     Sum        3377    2041    571               136233    63383    9435



     bravais-lattice index     =            8
     lattice parameter (alat)  =      19.1522  a.u.
     unit-cell volume          =    2853.1485 (a.u.)^3
     number of atoms/cell      =           20
     number of atomic types    =            1
     number of electrons       =        60.00
     number of Kohn-Sham states=           36
     kinetic-energy cutoff     =      30.0000  Ry
     charge density cutoff     =     200.0000  Ry
     scf convergence threshold =      1.0E-06
     mixing beta               =       0.1000
     number of iterations used =            8  plain     mixing
     energy convergence thresh.=      1.0E-04
     force convergence thresh. =      1.0E-03
     press convergence thresh. =      5.0E-01
     Exchange-correlation= PBE
                           (   1   4   3   4   0   0   0)
     nstep                     =           50


     celldm(1)=  19.152167  celldm(2)=   0.580193  celldm(3)=   0.700000
     celldm(4)=   0.000000  celldm(5)=   0.000000  celldm(6)=   0.000000

     crystal axes: (cart. coord. in units of alat)
               a(1) = (   1.000000   0.000000   0.000000 )  
               a(2) = (   0.000000   0.580193   0.000000 )  
               a(3) = (   0.000000   0.000000   0.700000 )  

     reciprocal axes: (cart. coord. in units 2 pi/alat)
               b(1) = (  1.000000  0.000000  0.000000 )  
               b(2) = (  0.000000  1.723564  0.000000 )  
               b(3) = (  0.000000  0.000000  1.428571 )  


     PseudoPot. # 1 for B  read from file:
     ./B.pbe-n-rrkjus_psl.1.0.0.UPF
     MD5 check sum: 21bc42b8719306ef1fe0545c7dabf1c6
     Pseudo is Ultrasoft + core correction, Zval =  3.0
     Generated using &quot;atomic&quot; code by A. Dal Corso  v.6.3MaX
     Using radial grid of 1059 points,  4 beta functions with: 
                l(1) =   0
                l(2) =   0
                l(3) =   1
                l(4) =   1
     Q(r) pseudized with 0 coefficients 


     atomic species   valence    mass     pseudopotential
        B              3.00    10.81100     B ( 1.00)

      2 Sym. Ops. (no inversion) found



   Cartesian axes

     site n.     atom                  positions (alat units)
         1           B   tau(   1) = (   0.5082219   0.0024367   0.0000000  )
         2           B   tau(   2) = (   0.6776245   0.0024367   0.0000000  )
         3           B   tau(   3) = (   0.8470321   0.0024367   0.0000000  )
         4           B   tau(   4) = (   0.5929257   0.1448381   0.0000000  )
         5           B   tau(   5) = (   0.7618251   0.1448381   0.0000000  )
         6           B   tau(   6) = (   0.5082219   0.2901861   0.0000000  )
         7           B   tau(   7) = (   0.6776245   0.2901861   0.0000000  )
         8           B   tau(   8) = (   0.8470321   0.2901861   0.0000000  )
         9           B   tau(   9) = (   0.5929257   0.4325875   0.0000000  )
        10           B   tau(  10) = (   0.7618251   0.4325875   0.0000000  )
        11           B   tau(  11) = (   0.0000093   0.0024367   0.0000000  )
        12           B   tau(  12) = (   0.1694117   0.0024367   0.0000000  )
        13           B   tau(  13) = (   0.3388193   0.0024367   0.0000000  )
        14           B   tau(  14) = (   0.0847132   0.1448381   0.0000000  )
        15           B   tau(  15) = (   0.2536124   0.1448381   0.0000000  )
        16           B   tau(  16) = (   0.0000093   0.2901861   0.0000000  )
        17           B   tau(  17) = (   0.1694117   0.2901861   0.0000000  )
        18           B   tau(  18) = (   0.3388193   0.2901861   0.0000000  )
        19           B   tau(  19) = (   0.0847132   0.4325875   0.0000000  )
        20           B   tau(  20) = (   0.2536124   0.4325875   0.0000000  )

     number of k points=     6  Marzari-Vanderbilt smearing, width (Ry)=  0.0050
                       cart. coord. in units 2pi/alat
        k(    1) = (   0.0000000   0.0000000   0.0000000), wk =   0.2500000
        k(    2) = (   0.0000000   0.4308910   0.0000000), wk =   0.5000000
        k(    3) = (   0.0000000  -0.8617820   0.0000000), wk =   0.2500000
        k(    4) = (  -0.5000000   0.0000000   0.0000000), wk =   0.2500000
        k(    5) = (  -0.5000000   0.4308910   0.0000000), wk =   0.5000000
        k(    6) = (  -0.5000000  -0.8617820   0.0000000), wk =   0.2500000

     Dense  grid:   136233 G-vectors     FFT dimensions: (  90,  54,  64)

     Smooth grid:    63383 G-vectors     FFT dimensions: (  72,  40,  48)

     Estimated max dynamical RAM per process >     169.77 MB

     Estimated total dynamical RAM >     339.54 MB

     Check: negative core charge=   -0.000005

     Initial potential from superposition of free atoms

     starting charge   59.99435, renormalised to   60.00000
     Starting wfcs are   80 randomized atomic wfcs

     total cpu time spent up to now is        6.3 secs

     Self-consistent Calculation

     iteration #  1     ecut=    30.00 Ry     beta= 0.10
     Davidson diagonalization with overlap
     ethr =  1.00E-02,  avg # of iterations =  2.0

     total cpu time spent up to now is       12.5 secs

     total energy              =    -126.21369820 Ry
     estimated scf accuracy    <       2.01992233 Ry

     iteration #  2     ecut=    30.00 Ry     beta= 0.10
     Davidson diagonalization with overlap
     ethr =  3.37E-03,  avg # of iterations =  1.0

     negative rho (up, down):  2.820E-02 0.000E+00

     total cpu time spent up to now is       16.7 secs

     total energy              =    -125.30376347 Ry
     estimated scf accuracy    <       1.56078882 Ry

     iteration #  3     ecut=    30.00 Ry     beta= 0.10
     Davidson diagonalization with overlap
     ethr =  2.60E-03,  avg # of iterations =  2.0

     negative rho (up, down):  1.205E-02 0.000E+00

     total cpu time spent up to now is       22.2 secs

     total energy              =    -125.53244158 Ry
     estimated scf accuracy    <       0.18289403 Ry

     iteration #  4     ecut=    30.00 Ry     beta= 0.10
     Davidson diagonalization with overlap
     ethr =  3.05E-04,  avg # of iterations =  2.0

     negative rho (up, down):  3.621E-02 0.000E+00

     total cpu time spent up to now is       26.8 secs

     total energy              =    -125.51232692 Ry
     estimated scf accuracy    <       0.10094460 Ry

     iteration #  5     ecut=    30.00 Ry     beta= 0.10
     Davidson diagonalization with overlap
     ethr =  1.68E-04,  avg # of iterations =  5.8

     negative rho (up, down):  2.755E-02 0.000E+00

     total cpu time spent up to now is       33.4 secs

     total energy              =    -125.54006486 Ry
     estimated scf accuracy    <       0.02827859 Ry

     iteration #  6     ecut=    30.00 Ry     beta= 0.10
     Davidson diagonalization with overlap
     ethr =  4.71E-05,  avg # of iterations =  3.0

     negative rho (up, down):  2.626E-02 0.000E+00

     total cpu time spent up to now is       37.9 secs

     total energy              =    -125.53513294 Ry
     estimated scf accuracy    <       0.01508690 Ry

     iteration #  7     ecut=    30.00 Ry     beta= 0.10
     Davidson diagonalization with overlap
     ethr =  2.51E-05,  avg # of iterations =  3.8

     negative rho (up, down):  2.887E-02 0.000E+00

     total cpu time spent up to now is       44.3 secs

     total energy              =    -125.54108749 Ry
     estimated scf accuracy    <       0.01721333 Ry

     iteration #  8     ecut=    30.00 Ry     beta= 0.10
     Davidson diagonalization with overlap
     ethr =  2.51E-05,  avg # of iterations =  1.0

     negative rho (up, down):  3.096E-02 0.000E+00

     total cpu time spent up to now is       48.4 secs

     total energy              =    -125.54015467 Ry
     estimated scf accuracy    <       0.00679607 Ry

     iteration #  9     ecut=    30.00 Ry     beta= 0.10
     Davidson diagonalization with overlap
     c_bands:  1 eigenvalues not converged
     ethr =  1.13E-05,  avg # of iterations =  6.5

     negative rho (up, down):  2.665E-02 0.000E+00

     total cpu time spent up to now is       53.1 secs

     total energy              =    -125.54294727 Ry
     estimated scf accuracy    <       0.00147247 Ry

     iteration # 10     ecut=    30.00 Ry     beta= 0.10
     Davidson diagonalization with overlap
     ethr =  2.45E-06,  avg # of iterations =  6.3

     negative rho (up, down):  2.370E-02 0.000E+00

     total cpu time spent up to now is       58.3 secs

     total energy              =    -125.54453714 Ry
     estimated scf accuracy    <       0.00124066 Ry

     iteration # 11     ecut=    30.00 Ry     beta= 0.10
     Davidson diagonalization with overlap
     ethr =  2.07E-06,  avg # of iterations =  1.8

     negative rho (up, down):  2.088E-02 0.000E+00

     total cpu time spent up to now is       62.7 secs

     total energy              =    -125.54624915 Ry
     estimated scf accuracy    <       0.00024017 Ry

     iteration # 12     ecut=    30.00 Ry     beta= 0.10
     Davidson diagonalization with overlap
     ethr =  4.00E-07,  avg # of iterations =  2.0

     negative rho (up, down):  1.839E-02 0.000E+00

     total cpu time spent up to now is       67.5 secs

     total energy              =    -125.54771396 Ry
     estimated scf accuracy    <       0.00005866 Ry

     iteration # 13     ecut=    30.00 Ry     beta= 0.10
     Davidson diagonalization with overlap
     ethr =  9.78E-08,  avg # of iterations =  2.7

     negative rho (up, down):  1.616E-02 0.000E+00

     total cpu time spent up to now is       72.4 secs

     total energy              =    -125.54902251 Ry
     estimated scf accuracy    <       0.00001196 Ry

     iteration # 14     ecut=    30.00 Ry     beta= 0.10
     Davidson diagonalization with overlap
     ethr =  1.99E-08,  avg # of iterations =  2.8

     negative rho (up, down):  1.450E-02 0.000E+00

     total cpu time spent up to now is       78.0 secs

     total energy              =    -125.55006236 Ry
     estimated scf accuracy    <       0.00000875 Ry

     iteration # 15     ecut=    30.00 Ry     beta= 0.10
     Davidson diagonalization with overlap
     ethr =  1.46E-08,  avg # of iterations =  2.5

     negative rho (up, down):  1.296E-02 0.000E+00

     total cpu time spent up to now is       83.2 secs

     total energy              =    -125.55100908 Ry
     estimated scf accuracy    <       0.00000353 Ry

     iteration # 16     ecut=    30.00 Ry     beta= 0.10
     Davidson diagonalization with overlap
     ethr =  5.88E-09,  avg # of iterations =  3.3

     negative rho (up, down):  1.148E-02 0.000E+00

     total cpu time spent up to now is       88.9 secs

     total energy              =    -125.55182954 Ry
     estimated scf accuracy    <       0.00000332 Ry

     iteration # 17     ecut=    30.00 Ry     beta= 0.10
     Davidson diagonalization with overlap
     ethr =  5.53E-09,  avg # of iterations =  2.8

     negative rho (up, down):  4.985E-03 0.000E+00

     total cpu time spent up to now is       93.9 secs

     End of self-consistent calculation

          k = 0.0000 0.0000 0.0000 (  7973 PWs)   bands (ev):

   -14.2155 -14.0185 -11.6421 -11.4575 -11.1493 -11.0838 -11.0017  -9.8308
    -9.2653  -8.6598  -7.9599  -6.7239  -5.4516  -5.2062  -5.1324  -5.1188
    -4.9132  -4.9045  -4.7328  -4.6043  -4.1147  -3.5840  -2.3243  -2.1682
    -1.5780  -1.2505  -0.7272  -0.4848  -0.2500  -0.2115   0.0319   0.2446
     0.5049   1.8517   3.0859   3.5041

          k = 0.0000 0.4309 0.0000 (  7931 PWs)   bands (ev):

   -14.0390 -13.8447 -12.6313 -12.4514 -10.9179  -9.8657  -9.7289  -9.7087
    -9.7013  -8.9030  -7.8265  -6.2589  -6.2266  -6.2208  -6.0018  -4.9150
    -4.8761  -4.3452  -4.1760  -4.1635  -3.4372  -3.1648  -2.8645  -2.4174
    -2.2784  -2.1220  -1.9351  -1.0739  -0.5321  -0.2319   0.4944   1.1768
     1.8082   2.0197   2.4732   3.3462

          k = 0.0000-0.8618 0.0000 (  7912 PWs)   bands (ev):

   -13.5722 -13.4395 -13.3867 -13.2491 -10.4845 -10.3820  -9.4216  -9.2991
    -8.2729  -8.2153  -8.0061  -7.9365  -7.0225  -6.9540  -5.1172  -5.0744
    -4.1668  -4.0540  -3.6269  -3.6251  -3.5263  -3.5041  -2.9296  -2.8882
    -2.6371  -2.5531  -1.8970  -1.7629  -1.2927  -1.2139   1.1883   1.2954
     2.3329   2.3766   4.1322   4.1389

          k =-0.5000 0.0000 0.0000 (  7894 PWs)   bands (ev):

   -14.1371 -14.1099 -11.5685 -11.5426 -11.0902 -11.0665 -10.6711 -10.4982
    -9.0233  -8.9232  -6.8197  -6.4959  -6.3013  -6.0695  -5.3572  -5.3119
    -4.9433  -4.8754  -4.8396  -4.3576  -3.3785  -3.0168  -1.7729  -1.5857
    -1.3561  -1.3277  -1.2136  -1.1298  -0.7913  -0.5794  -0.3858  -0.3519
     1.5912   1.8828   3.4131   3.4228

          k =-0.5000 0.4309 0.0000 (  7932 PWs)   bands (ev):

   -13.9618 -13.9350 -12.5600 -12.5344 -10.5157 -10.3469  -9.8093  -9.7855
    -9.4090  -9.2785  -6.8471  -6.6115  -6.0873  -6.0229  -5.9597  -5.7864
    -4.7523  -4.6874  -4.6190  -4.3349  -2.8952  -2.6644  -2.5861  -2.5216
    -1.8682  -1.6323  -1.6165  -1.3905  -1.1202  -0.8961   0.5037   0.7285
     1.6704   1.7686   3.6883   4.0109

          k =-0.5000-0.8618 0.0000 (  7936 PWs)   bands (ev):

   -13.4984 -13.4724 -13.3637 -13.3374 -10.1184 -10.0106  -9.9639  -9.8573
    -8.1291  -8.0881  -8.0667  -8.0249  -6.2514  -6.1861  -5.9480  -5.8904
    -3.9765  -3.9054  -3.8608  -3.7895  -3.5406  -3.4886  -3.2529  -3.1981
    -2.1541  -2.0546  -1.8097  -1.7055  -0.4796  -0.3941  -0.2473  -0.1648
     3.8412   3.9555   4.0136   4.4783

     the Fermi energy is    -0.2387 ev

!    total energy              =    -125.55529073 Ry
     estimated scf accuracy    <       0.00000073 Ry
     smearing contrib. (-TS)   =      -0.00068169 Ry
     internal energy E=F+TS    =    -125.55460904 Ry

     The total energy is F=E-TS. E is the sum of the following terms:
     one-electron contribution =    -223.56801699 Ry
     hartree contribution      =     127.33627171 Ry
     xc contribution           =     -58.35166339 Ry
     ewald contribution        =      29.02879963 Ry

     convergence has been achieved in  17 iterations

     negative rho (up, down):  4.985E-03 0.000E+00

     Forces acting on atoms (cartesian axes, Ry/au):

     atom    1 type  1   force =    -0.03556454   -0.02272186    0.00000000
     atom    2 type  1   force =    -0.00350584   -0.03356939    0.00000000
     atom    3 type  1   force =    -0.07783846   -0.02336397    0.00000000
     atom    4 type  1   force =    -0.01176762    0.00956844    0.00000000
     atom    5 type  1   force =     0.00662962    0.01050754    0.00000000
     atom    6 type  1   force =    -0.04440516   -0.00837778    0.00000000
     atom    7 type  1   force =    -0.00253514   -0.00521254    0.00000000
     atom    8 type  1   force =    -0.07315428   -0.00786819    0.00000000
     atom    9 type  1   force =    -0.01087382    0.04047353    0.00000000
     atom   10 type  1   force =     0.00628432    0.04075635    0.00000000
     atom   11 type  1   force =     0.07818265   -0.02412637    0.00000000
     atom   12 type  1   force =     0.00299587   -0.03308175    0.00000000
     atom   13 type  1   force =     0.03220452   -0.02208662    0.00000000
     atom   14 type  1   force =    -0.00572779    0.01045212    0.00000000
     atom   15 type  1   force =     0.01473300    0.00960149    0.00000000
     atom   16 type  1   force =     0.07300637   -0.00798947    0.00000000
     atom   17 type  1   force =     0.00147527   -0.00522077    0.00000000
     atom   18 type  1   force =     0.04121393   -0.00828457    0.00000000
     atom   19 type  1   force =    -0.00510531    0.04048031    0.00000000
     atom   20 type  1   force =     0.01375243    0.04006350    0.00000000

     Total force =     0.000000     Total SCF correction =     0.000000


     Computing stress (Cartesian axis) and pressure


     negative rho (up, down):  4.985E-03 0.000E+00
          total   stress  (Ry/bohr**3)                   (kbar)     P=       -7.57
  -0.00000529   0.00000123   0.00000000           -0.78        0.18        0.00
   0.00000123  -0.00011711   0.00000000            0.18      -17.23        0.00
   0.00000000   0.00000000  -0.00003195            0.00        0.00       -4.70


     BFGS Geometry Optimization
     Energy error            =      0.0E+00
     Gradient error          =      0.0E+00
     Cell gradient error     =      1.2E-04


     number of scf cycles    =   1
     number of bfgs steps    =   0

     enthalpy new            =    -125.5552907284 Ry

     new trust radius        =       0.0312775243 bohr
     new conv_thr            =       0.0000010000 Ry

     new unit-cell volume =   2844.41859 a.u.^3 (   421.49935 Ang^3 )
     density =      0.85182 g/cm^3

CELL_PARAMETERS (alat= 19.15216671)
   0.999867655   0.000000000   0.000000000
   0.000000000   0.578494466   0.000000000
   0.000000000   0.000000000   0.700000000

ATOMIC_POSITIONS (crystal)
B             0.5082218959        0.0041997725        0.0000000000    0   0   0
B             0.6776244512        0.0041997725        0.0000000000    0   0   0
B             0.8470320887        0.0041997725        0.0000000000    0   0   0
B             0.5929257146        0.2496377061        0.0000000000    0   0   0
B             0.7618251393        0.2496377061        0.0000000000    0   0   0
B             0.5082218959        0.5001542435        0.0000000000    0   0   0
B             0.6776244512        0.5001542435        0.0000000000    0   0   0
B             0.8470320887        0.5001542435        0.0000000000    0   0   0
B             0.5929257146        0.7455922069        0.0000000000    0   0   0
B             0.7618251393        0.7455922069        0.0000000000    0   0   0
B             0.0000093308        0.0041997725        0.0000000000    0   0   0
B             0.1694117031        0.0041997725        0.0000000000    0   0   0
B             0.3388193406        0.0041997725        0.0000000000    0   0   0
B             0.0847131698        0.2496377061        0.0000000000    0   0   0
B             0.2536123912        0.2496377061        0.0000000000    0   0   0
B             0.0000093308        0.5001542435        0.0000000000    0   0   0
B             0.1694117031        0.5001542435        0.0000000000    0   0   0
B             0.3388193406        0.5001542435        0.0000000000    0   0   0
B             0.0847131698        0.7455922069        0.0000000000    0   0   0
B             0.2536123912        0.7455922069        0.0000000000    0   0   0



     Writing output data file ./b12_22.save/
     NEW-OLD atomic charge density approx. for the potential

     Check: negative core charge=   -0.000005

     negative rho (up, down):  5.040E-03 0.000E+00
     extrapolated charge   59.81587, renormalised to   60.00000

     total cpu time spent up to now is      106.7 secs

     Self-consistent Calculation

     iteration #  1     ecut=    30.00 Ry     beta= 0.10
     Davidson diagonalization with overlap
     ethr =  1.00E-06,  avg # of iterations =  9.2

     negative rho (up, down):  5.076E-03 0.000E+00

     total cpu time spent up to now is      114.1 secs

     total energy              =    -125.55490415 Ry
     estimated scf accuracy    <       0.00166362 Ry

     iteration #  2     ecut=    30.00 Ry     beta= 0.10
     Davidson diagonalization with overlap
     ethr =  2.77E-06,  avg # of iterations =  3.5

     negative rho (up, down):  5.067E-03 0.000E+00

     total cpu time spent up to now is      120.4 secs

     total energy              =    -125.55603939 Ry
     estimated scf accuracy    <       0.00014920 Ry

     iteration #  3     ecut=    30.00 Ry     beta= 0.10
     Davidson diagonalization with overlap
     ethr =  2.49E-07,  avg # of iterations =  1.3

     negative rho (up, down):  5.058E-03 0.000E+00

     total cpu time spent up to now is      124.6 secs

     total energy              =    -125.55602541 Ry
     estimated scf accuracy    <       0.00009553 Ry

     iteration #  4     ecut=    30.00 Ry     beta= 0.10
     Davidson diagonalization with overlap
     ethr =  1.59E-07,  avg # of iterations =  1.2

     negative rho (up, down):  5.052E-03 0.000E+00

     total cpu time spent up to now is      128.8 secs

     total energy              =    -125.55602894 Ry
     estimated scf accuracy    <       0.00002762 Ry

     iteration #  5     ecut=    30.00 Ry     beta= 0.10
     Davidson diagonalization with overlap
     ethr =  4.60E-08,  avg # of iterations =  1.0

     negative rho (up, down):  5.045E-03 0.000E+00

     total cpu time spent up to now is      133.0 secs

     total energy              =    -125.55602212 Ry
     estimated scf accuracy    <       0.00002052 Ry

     iteration #  6     ecut=    30.00 Ry     beta= 0.10
     Davidson diagonalization with overlap
     ethr =  3.42E-08,  avg # of iterations =  2.0

     negative rho (up, down):  5.040E-03 0.000E+00

     total cpu time spent up to now is      137.6 secs

     total energy              =    -125.55602454 Ry
     estimated scf accuracy    <       0.00000273 Ry

     iteration #  7     ecut=    30.00 Ry     beta= 0.10
     Davidson diagonalization with overlap
     ethr =  4.55E-09,  avg # of iterations =  3.2

     negative rho (up, down):  5.038E-03 0.000E+00

     total cpu time spent up to now is      143.1 secs

     total energy              =    -125.55602447 Ry
     estimated scf accuracy    <       0.00000518 Ry

     iteration #  8     ecut=    30.00 Ry     beta= 0.10
     Davidson diagonalization with overlap
     ethr =  4.55E-09,  avg # of iterations =  2.0

     negative rho (up, down):  5.009E-03 0.000E+00

     total cpu time spent up to now is      148.0 secs

     End of self-consistent calculation

          k = 0.0000 0.0000 0.0000 (  7973 PWs)   bands (ev):

   -14.2250 -14.0291 -11.6386 -11.4558 -11.1499 -11.0890 -11.0031  -9.8398
    -9.2617  -8.6647  -7.9610  -6.7195  -5.4273  -5.1831  -5.1366  -5.0977
    -4.9101  -4.9051  -4.7254  -4.6099  -4.0925  -3.5898  -2.3308  -2.1657
    -1.5563  -1.2164  -0.7071  -0.4643  -0.2302  -0.1914   0.0609   0.2428
     0.5310   1.8619   3.1966   3.5249

          k = 0.0000 0.4322 0.0000 (  7931 PWs)   bands (ev):

   -14.0478 -13.8545 -12.6344 -12.4558 -10.9224  -9.8586  -9.7280  -9.7172
    -9.6958  -8.9089  -7.8260  -6.2449  -6.2153  -6.2030  -5.9947  -4.9120
    -4.8788  -4.3492  -4.1664  -4.1439  -3.4181  -3.1684  -2.8540  -2.4234
    -2.2695  -2.0890  -1.9310  -1.0514  -0.5105  -0.2143   0.4943   1.2106
     1.8429   2.0320   2.4856   3.4573

          k = 0.0000-0.8643 0.0000 (  7912 PWs)   bands (ev):

   -13.5779 -13.4472 -13.3935 -13.2579 -10.4862 -10.3852  -9.4283  -9.3072
    -8.2604  -8.2037  -7.9931  -7.9256  -7.0175  -6.9501  -5.1147  -5.0725
    -4.1638  -4.0525  -3.6253  -3.5958  -3.5041  -3.4966  -2.9244  -2.8788
    -2.6309  -2.5536  -1.8749  -1.7404  -1.2831  -1.2052   1.1937   1.2990
     2.3540   2.3986   4.2464   4.2541

          k =-0.5001 0.0000 0.0000 (  7894 PWs)   bands (ev):

   -14.1472 -14.1199 -11.5658 -11.5399 -11.0911 -11.0675 -10.6780 -10.5041
    -9.0231  -8.9238  -6.8235  -6.4962  -6.2994  -6.0650  -5.3334  -5.2881
    -4.9482  -4.8798  -4.8202  -4.3297  -3.3814  -3.0197  -1.7682  -1.5786
    -1.3548  -1.3078  -1.1921  -1.1266  -0.7595  -0.5469  -0.3656  -0.3315
     1.6149   1.9089   3.5161   3.5352

          k =-0.5001 0.4322 0.0000 (  7932 PWs)   bands (ev):

   -13.9711 -13.9442 -12.5637 -12.5380 -10.5220 -10.3521  -9.8028  -9.7791
    -9.4108  -9.2804  -6.8459  -6.6048  -6.0729  -6.0217  -5.9459  -5.7832
    -4.7327  -4.6906  -4.6217  -4.3105  -2.8930  -2.6547  -2.5757  -2.5174
    -1.8529  -1.6135  -1.5991  -1.3704  -1.1182  -0.8919   0.5214   0.7498
     1.7023   1.7993   3.7943   4.0219

          k =-0.5001-0.8643 0.0000 (  7936 PWs)   bands (ev):

   -13.5046 -13.4785 -13.3720 -13.3455 -10.1221 -10.0156  -9.9668  -9.8619
    -8.1159  -8.0748  -8.0554  -8.0135  -6.2517  -6.1871  -5.9444  -5.8880
    -3.9742  -3.9025  -3.8600  -3.7881  -3.5176  -3.4673  -3.2278  -3.1745
    -2.1473  -2.0484  -1.8006  -1.6965  -0.4719  -0.3876  -0.2372  -0.1561
     3.8818   3.9936   4.0589   4.1955

     the Fermi energy is    -0.2222 ev

!    total energy              =    -125.55602645 Ry
     estimated scf accuracy    <       0.00000030 Ry
     smearing contrib. (-TS)   =      -0.00067365 Ry
     internal energy E=F+TS    =    -125.55535280 Ry

     The total energy is F=E-TS. E is the sum of the following terms:
     one-electron contribution =    -224.37851693 Ry
     hartree contribution      =     127.78455009 Ry
     xc contribution           =     -58.40626626 Ry
     ewald contribution        =      29.44488030 Ry

     convergence has been achieved in   8 iterations

     negative rho (up, down):  5.009E-03 0.000E+00

     Forces acting on atoms (cartesian axes, Ry/au):

     atom    1 type  1   force =    -0.03637119   -0.02286390    0.00000000
     atom    2 type  1   force =    -0.00331200   -0.03418051    0.00000000
     atom    3 type  1   force =    -0.07791985   -0.02357925    0.00000000
     atom    4 type  1   force =    -0.01217656    0.00982083    0.00000000
     atom    5 type  1   force =     0.00705437    0.01078618    0.00000000
     atom    6 type  1   force =    -0.04546208   -0.00871677    0.00000000
     atom    7 type  1   force =    -0.00225914   -0.00551414    0.00000000
     atom    8 type  1   force =    -0.07321717   -0.00810880    0.00000000
     atom    9 type  1   force =    -0.01100872    0.04118203    0.00000000
     atom   10 type  1   force =     0.00659617    0.04138064    0.00000000
     atom   11 type  1   force =     0.07823489   -0.02435564    0.00000000
     atom   12 type  1   force =     0.00275474   -0.03369333    0.00000000
     atom   13 type  1   force =     0.03301334   -0.02222056    0.00000000
     atom   14 type  1   force =    -0.00610391    0.01073722    0.00000000
     atom   15 type  1   force =     0.01517197    0.00984218    0.00000000
     atom   16 type  1   force =     0.07303354   -0.00824312    0.00000000
     atom   17 type  1   force =     0.00115080   -0.00551754    0.00000000
     atom   18 type  1   force =     0.04226584   -0.00861726    0.00000000
     atom   19 type  1   force =    -0.00536576    0.04110491    0.00000000
     atom   20 type  1   force =     0.01392073    0.04075686    0.00000000

     Total force =     0.000000     Total SCF correction =     0.000000


     Computing stress (Cartesian axis) and pressure


     negative rho (up, down):  5.009E-03 0.000E+00
          total   stress  (Ry/bohr**3)                   (kbar)     P=       -3.89
   0.00000556   0.00000123   0.00000000            0.82        0.18        0.00
   0.00000123  -0.00005414   0.00000000            0.18       -7.96        0.00
   0.00000000   0.00000000  -0.00003080            0.00        0.00       -4.53

     Energy error            =      7.4E-04
     Gradient error          =      0.0E+00
     Cell gradient error     =      5.4E-05


     number of scf cycles    =   2
     number of bfgs steps    =   1

     enthalpy old            =    -125.5552907284 Ry
     enthalpy new            =    -125.5560264502 Ry

     CASE: enthalpy_new < enthalpy_old

     new trust radius        =       0.0272639715 bohr
     new conv_thr            =       0.0000000100 Ry

     new unit-cell volume =   2837.86904 a.u.^3 (   420.52880 Ang^3 )
     density =      0.85379 g/cm^3

CELL_PARAMETERS (alat= 19.15216671)
   1.000121683   0.000000000   0.000000000
   0.000000000   0.577015829   0.000000000
   0.000000000   0.000000000   0.700000000

ATOMIC_POSITIONS (crystal)
B             0.5082218959        0.0041997725        0.0000000000    0   0   0
B             0.6776244512        0.0041997725        0.0000000000    0   0   0
B             0.8470320887        0.0041997725        0.0000000000    0   0   0
B             0.5929257146        0.2496377061        0.0000000000    0   0   0
B             0.7618251393        0.2496377061        0.0000000000    0   0   0
B             0.5082218959        0.5001542435        0.0000000000    0   0   0
B             0.6776244512        0.5001542435        0.0000000000    0   0   0
B             0.8470320887        0.5001542435        0.0000000000    0   0   0
B             0.5929257146        0.7455922069        0.0000000000    0   0   0
B             0.7618251393        0.7455922069        0.0000000000    0   0   0
B             0.0000093308        0.0041997725        0.0000000000    0   0   0
B             0.1694117031        0.0041997725        0.0000000000    0   0   0
B             0.3388193406        0.0041997725        0.0000000000    0   0   0
B             0.0847131698        0.2496377061        0.0000000000    0   0   0
B             0.2536123912        0.2496377061        0.0000000000    0   0   0
B             0.0000093308        0.5001542435        0.0000000000    0   0   0
B             0.1694117031        0.5001542435        0.0000000000    0   0   0
B             0.3388193406        0.5001542435        0.0000000000    0   0   0
B             0.0847131698        0.7455922069        0.0000000000    0   0   0
B             0.2536123912        0.7455922069        0.0000000000    0   0   0



     Writing output data file ./b12_22.save/
     NEW-OLD atomic charge density approx. for the potential

     Check: negative core charge=   -0.000005

     negative rho (up, down):  5.050E-03 0.000E+00
     extrapolated charge   59.86154, renormalised to   60.00000

     total cpu time spent up to now is      160.9 secs

     Self-consistent Calculation

     iteration #  1     ecut=    30.00 Ry     beta= 0.10
     Davidson diagonalization with overlap
     ethr =  1.00E-06,  avg # of iterations =  3.0

     negative rho (up, down):  5.073E-03 0.000E+00

     total cpu time spent up to now is      167.5 secs

     total energy              =    -125.55557493 Ry
     estimated scf accuracy    <       0.00091348 Ry

     iteration #  2     ecut=    30.00 Ry     beta= 0.10
     Davidson diagonalization with overlap
     ethr =  1.52E-06,  avg # of iterations =  2.0

     negative rho (up, down):  5.062E-03 0.000E+00

     total cpu time spent up to now is      173.6 secs

     total energy              =    -125.55623842 Ry
     estimated scf accuracy    <       0.00012119 Ry

     iteration #  3     ecut=    30.00 Ry     beta= 0.10
     Davidson diagonalization with overlap
     ethr =  2.02E-07,  avg # of iterations =  1.2

     negative rho (up, down):  5.047E-03 0.000E+00

     total cpu time spent up to now is      177.9 secs

     total energy              =    -125.55622593 Ry
     estimated scf accuracy    <       0.00007683 Ry

     iteration #  4     ecut=    30.00 Ry     beta= 0.10
     Davidson diagonalization with overlap
     ethr =  1.28E-07,  avg # of iterations =  1.0

     negative rho (up, down):  5.038E-03 0.000E+00

     total cpu time spent up to now is      182.0 secs

     total energy              =    -125.55622736 Ry
     estimated scf accuracy    <       0.00002269 Ry

     iteration #  5     ecut=    30.00 Ry     beta= 0.10
     Davidson diagonalization with overlap
     ethr =  3.78E-08,  avg # of iterations =  1.0

     negative rho (up, down):  5.016E-03 0.000E+00

     total cpu time spent up to now is      186.2 secs

     total energy              =    -125.55622194 Ry
     estimated scf accuracy    <       0.00001342 Ry

     iteration #  6     ecut=    30.00 Ry     beta= 0.10
     Davidson diagonalization with overlap
     ethr =  2.24E-08,  avg # of iterations =  2.0

     negative rho (up, down):  5.010E-03 0.000E+00

     total cpu time spent up to now is      191.3 secs

     total energy              =    -125.55622447 Ry
     estimated scf accuracy    <       0.00000176 Ry

     iteration #  7     ecut=    30.00 Ry     beta= 0.10
     Davidson diagonalization with overlap
     ethr =  2.93E-09,  avg # of iterations =  3.2

     negative rho (up, down):  5.007E-03 0.000E+00

     total cpu time spent up to now is      196.5 secs

     total energy              =    -125.55622414 Ry
     estimated scf accuracy    <       0.00000286 Ry

     iteration #  8     ecut=    30.00 Ry     beta= 0.10
     Davidson diagonalization with overlap
     ethr =  2.93E-09,  avg # of iterations =  2.3

     negative rho (up, down):  5.003E-03 0.000E+00

     total cpu time spent up to now is      201.5 secs

     total energy              =    -125.55622475 Ry
     estimated scf accuracy    <       0.00000018 Ry

     iteration #  9     ecut=    30.00 Ry     beta= 0.10
     Davidson diagonalization with overlap
     ethr =  3.08E-10,  avg # of iterations =  2.3

     negative rho (up, down):  4.997E-03 0.000E+00

     total cpu time spent up to now is      206.2 secs

     total energy              =    -125.55622459 Ry
     estimated scf accuracy    <       0.00000019 Ry

     iteration # 10     ecut=    30.00 Ry     beta= 0.10
     Davidson diagonalization with overlap
     ethr =  3.08E-10,  avg # of iterations =  3.0

     negative rho (up, down):  4.995E-03 0.000E+00

     total cpu time spent up to now is      211.6 secs

     total energy              =    -125.55622477 Ry
     estimated scf accuracy    <       0.00000015 Ry

     iteration # 11     ecut=    30.00 Ry     beta= 0.10
     Davidson diagonalization with overlap
     ethr =  2.53E-10,  avg # of iterations =  2.0

     negative rho (up, down):  4.992E-03 0.000E+00

     total cpu time spent up to now is      216.2 secs

     total energy              =    -125.55622495 Ry
     estimated scf accuracy    <       0.00000001 Ry

     iteration # 12     ecut=    30.00 Ry     beta= 0.10
     Davidson diagonalization with overlap
     ethr =  2.01E-11,  avg # of iterations =  5.2

     negative rho (up, down):  4.976E-03 0.000E+00

     total cpu time spent up to now is      221.5 secs

     End of self-consistent calculation

          k = 0.0000 0.0000 0.0000 (  7973 PWs)   bands (ev):

   -14.2360 -14.0411 -11.6372 -11.4562 -11.1528 -11.0973 -11.0070  -9.8525
    -9.2617  -8.6723  -7.9662  -6.7195  -5.4061  -5.1632  -5.1442  -5.0843
    -4.9121  -4.9083  -4.7256  -4.6192  -4.0764  -3.6031  -2.3442  -2.1694
    -1.5404  -1.1891  -0.6935  -0.4508  -0.2188  -0.1783   0.0820   0.2333
     0.5491   1.8618   3.2040   3.3374

          k = 0.0000 0.4333 0.0000 (  7931 PWs)   bands (ev):

   -14.0581 -13.8659 -12.6393 -12.4621 -10.9300  -9.8543  -9.7305  -9.7294
    -9.6929  -8.9178  -7.8298  -6.2389  -6.2039  -6.1887  -5.9920  -4.9135
    -4.8849  -4.3570  -4.1642  -4.1305  -3.4054  -3.1795  -2.8485  -2.4367
    -2.2660  -2.0632  -1.9332  -1.0368  -0.4970  -0.2041   0.4862   1.2361
     1.8689   2.0339   2.4884   3.4663

          k = 0.0000-0.8665 0.0000 (  7912 PWs)   bands (ev):

   -13.5854 -13.4564 -13.4022 -13.2682 -10.4913 -10.3915  -9.4387  -9.3186
    -8.2514  -8.1954  -7.9833  -7.9176  -7.0166  -6.9502  -5.1161  -5.0742
    -4.1650  -4.0550  -3.6282  -3.5739  -3.5084  -3.4746  -2.9274  -2.8771
    -2.6319  -2.5612  -1.8600  -1.7253  -1.2803  -1.2033   1.1905   1.2943
     2.3650   2.4101   4.2592   4.2661

          k =-0.4999 0.0000 0.0000 (  7894 PWs)   bands (ev):

   -14.1586 -14.1313 -11.5652 -11.5394 -11.0945 -11.0709 -10.6881 -10.5134
    -9.0263  -8.9276  -6.8317  -6.5016  -6.3019  -6.0656  -5.3127  -5.2675
    -4.9565  -4.8878  -4.8068  -4.3090  -3.3908  -3.0296  -1.7711  -1.5795
    -1.3605  -1.2933  -1.1775  -1.1299  -0.7348  -0.5218  -0.3523  -0.3181
     1.6300   1.9259   3.5240   3.5438

          k =-0.4999 0.4333 0.0000 (  7932 PWs)   bands (ev):

   -13.9818 -13.9549 -12.5692 -12.5435 -10.5314 -10.3608  -9.7991  -9.7755
    -9.4158  -9.2855  -6.8492  -6.6027  -6.0629  -6.0230  -5.9358  -5.7842
    -4.7201  -4.6975  -4.6282  -4.2941  -2.8972  -2.6500  -2.5706  -2.5201
    -1.8460  -1.6010  -1.5905  -1.3570  -1.1228  -0.8951   0.5313   0.7627
     1.7255   1.8215   3.8021   4.0204

          k =-0.4999-0.8665 0.0000 (  7936 PWs)   bands (ev):

   -13.5126 -13.4866 -13.3816 -13.3552 -10.1293 -10.0238  -9.9734  -9.8696
    -8.1059  -8.0647  -8.0471  -8.0052  -6.2561  -6.1920  -5.9456  -5.8900
    -3.9762  -3.9040  -3.8633  -3.7910  -3.5018  -3.4531  -3.2106  -3.1587
    -2.1473  -2.0491  -1.7989  -1.6949  -0.4715  -0.3880  -0.2351  -0.1551
     3.9112   4.0200   4.0932   4.2274

     the Fermi energy is    -0.2139 ev

!    total energy              =    -125.55622581 Ry
     estimated scf accuracy    <          3.2E-09 Ry
     smearing contrib. (-TS)   =      -0.00064106 Ry
     internal energy E=F+TS    =    -125.55558475 Ry

     The total energy is F=E-TS. E is the sum of the following terms:
     one-electron contribution =    -224.98116598 Ry
     hartree contribution      =     128.11034167 Ry
     xc contribution           =     -58.44580074 Ry
     ewald contribution        =      29.76104030 Ry

     convergence has been achieved in  12 iterations

     negative rho (up, down):  4.976E-03 0.000E+00

     Forces acting on atoms (cartesian axes, Ry/au):

     atom    1 type  1   force =    -0.03709114   -0.02296322    0.00000000
     atom    2 type  1   force =    -0.00310126   -0.03469879    0.00000000
     atom    3 type  1   force =    -0.07784117   -0.02373522    0.00000000
     atom    4 type  1   force =    -0.01243511    0.01005472    0.00000000
     atom    5 type  1   force =     0.00722093    0.01104356    0.00000000
     atom    6 type  1   force =    -0.04644845   -0.00903758    0.00000000
     atom    7 type  1   force =    -0.00196455   -0.00578205    0.00000000
     atom    8 type  1   force =    -0.07315153   -0.00835535    0.00000000
     atom    9 type  1   force =    -0.01101677    0.04177407    0.00000000
     atom   10 type  1   force =     0.00665643    0.04190962    0.00000000
     atom   11 type  1   force =     0.07814702   -0.02452086    0.00000000
     atom   12 type  1   force =     0.00252216   -0.03421211    0.00000000
     atom   13 type  1   force =     0.03371784   -0.02231269    0.00000000
     atom   14 type  1   force =    -0.00624204    0.01100118    0.00000000
     atom   15 type  1   force =     0.01545471    0.01006916    0.00000000
     atom   16 type  1   force =     0.07295874   -0.00849748    0.00000000
     atom   17 type  1   force =     0.00083148   -0.00578491    0.00000000
     atom   18 type  1   force =     0.04323033   -0.00892991    0.00000000
     atom   19 type  1   force =    -0.00540164    0.04163825    0.00000000
     atom   20 type  1   force =     0.01395404    0.04133961    0.00000000

     Total force =     0.000000     Total SCF correction =     0.000000


     Computing stress (Cartesian axis) and pressure


     negative rho (up, down):  4.976E-03 0.000E+00
          total   stress  (Ry/bohr**3)                   (kbar)     P=       -1.11
   0.00000776   0.00000124   0.00000000            1.14        0.18        0.00
   0.00000124   0.00000096   0.00000000            0.18        0.14        0.00
   0.00000000   0.00000000  -0.00003135            0.00        0.00       -4.61

     Energy error            =      2.0E-04
     Gradient error          =      0.0E+00
     Cell gradient error     =      7.8E-06


     number of scf cycles    =   3
     number of bfgs steps    =   2

     enthalpy old            =    -125.5560264502 Ry
     enthalpy new            =    -125.5562258109 Ry

     CASE: enthalpy_new < enthalpy_old

     new trust radius        =       0.0020347780 bohr
     new conv_thr            =       0.0000000100 Ry

     new unit-cell volume =   2838.41508 a.u.^3 (   420.60972 Ang^3 )
     density =      0.85362 g/cm^3

CELL_PARAMETERS (alat= 19.15216671)
   1.000312687   0.000000000   0.000000000
   0.000000000   0.577016654   0.000000000
   0.000000000   0.000000000   0.700000000

ATOMIC_POSITIONS (crystal)
B             0.5082218959        0.0041997725        0.0000000000    0   0   0
B             0.6776244512        0.0041997725        0.0000000000    0   0   0
B             0.8470320887        0.0041997725        0.0000000000    0   0   0
B             0.5929257146        0.2496377061        0.0000000000    0   0   0
B             0.7618251393        0.2496377061        0.0000000000    0   0   0
B             0.5082218959        0.5001542435        0.0000000000    0   0   0
B             0.6776244512        0.5001542435        0.0000000000    0   0   0
B             0.8470320887        0.5001542435        0.0000000000    0   0   0
B             0.5929257146        0.7455922069        0.0000000000    0   0   0
B             0.7618251393        0.7455922069        0.0000000000    0   0   0
B             0.0000093308        0.0041997725        0.0000000000    0   0   0
B             0.1694117031        0.0041997725        0.0000000000    0   0   0
B             0.3388193406        0.0041997725        0.0000000000    0   0   0
B             0.0847131698        0.2496377061        0.0000000000    0   0   0
B             0.2536123912        0.2496377061        0.0000000000    0   0   0
B             0.0000093308        0.5001542435        0.0000000000    0   0   0
B             0.1694117031        0.5001542435        0.0000000000    0   0   0
B             0.3388193406        0.5001542435        0.0000000000    0   0   0
B             0.0847131698        0.7455922069        0.0000000000    0   0   0
B             0.2536123912        0.7455922069        0.0000000000    0   0   0



     Writing output data file ./b12_22.save/
     NEW-OLD atomic charge density approx. for the potential

     Check: negative core charge=   -0.000005

     negative rho (up, down):  4.973E-03 0.000E+00
     extrapolated charge   60.01154, renormalised to   60.00000

     total cpu time spent up to now is      234.4 secs

     Self-consistent Calculation

     iteration #  1     ecut=    30.00 Ry     beta= 0.10
     Davidson diagonalization with overlap
     ethr =  1.00E-06,  avg # of iterations =  2.0

     Threshold (ethr) on eigenvalues was too large:
     Diagonalizing with lowered threshold

     Davidson diagonalization with overlap
     ethr =  1.11E-08,  avg # of iterations =  1.5

     negative rho (up, down):  4.971E-03 0.000E+00

     total cpu time spent up to now is      243.4 secs

     total energy              =    -125.55622421 Ry
     estimated scf accuracy    <       0.00000724 Ry

     iteration #  2     ecut=    30.00 Ry     beta= 0.10
     Davidson diagonalization with overlap
     ethr =  1.21E-08,  avg # of iterations =  3.7

     negative rho (up, down):  4.971E-03 0.000E+00

     total cpu time spent up to now is      249.4 secs

     total energy              =    -125.55622903 Ry
     estimated scf accuracy    <       0.00000055 Ry

     iteration #  3     ecut=    30.00 Ry     beta= 0.10
     Davidson diagonalization with overlap
     ethr =  9.22E-10,  avg # of iterations =  1.5

     negative rho (up, down):  4.973E-03 0.000E+00

     total cpu time spent up to now is      253.7 secs

     total energy              =    -125.55622893 Ry
     estimated scf accuracy    <       0.00000039 Ry

     iteration #  4     ecut=    30.00 Ry     beta= 0.10
     Davidson diagonalization with overlap
     ethr =  6.54E-10,  avg # of iterations =  1.7

     negative rho (up, down):  4.973E-03 0.000E+00

     total cpu time spent up to now is      258.1 secs

     total energy              =    -125.55622897 Ry
     estimated scf accuracy    <       0.00000006 Ry

     iteration #  5     ecut=    30.00 Ry     beta= 0.10
     Davidson diagonalization with overlap
     ethr =  9.42E-11,  avg # of iterations =  1.7

     negative rho (up, down):  4.975E-03 0.000E+00

     total cpu time spent up to now is      262.5 secs

     total energy              =    -125.55622895 Ry
     estimated scf accuracy    <       0.00000006 Ry

     iteration #  6     ecut=    30.00 Ry     beta= 0.10
     Davidson diagonalization with overlap
     ethr =  9.42E-11,  avg # of iterations =  2.0

     negative rho (up, down):  4.979E-03 0.000E+00

     total cpu time spent up to now is      267.2 secs

     End of self-consistent calculation

          k = 0.0000 0.0000 0.0000 (  7973 PWs)   bands (ev):

   -14.2353 -14.0405 -11.6363 -11.4554 -11.1519 -11.0973 -11.0062  -9.8531
    -9.2615  -8.6724  -7.9664  -6.7196  -5.4045  -5.1619  -5.1437  -5.0845
    -4.9125  -4.9086  -4.7272  -4.6190  -4.0764  -3.6053  -2.3464  -2.1698
    -1.5398  -1.1888  -0.6933  -0.4505  -0.2199  -0.1783   0.0812   0.2315
     0.5489   1.8602   3.2040   3.3361

          k = 0.0000 0.4333 0.0000 (  7931 PWs)   bands (ev):

   -14.0573 -13.8652 -12.6384 -12.4613 -10.9300  -9.8532  -9.7304  -9.7300
    -9.6919  -8.9181  -7.8300  -6.2388  -6.2029  -6.1876  -5.9920  -4.9139
    -4.8844  -4.3568  -4.1657  -4.1308  -3.4056  -3.1817  -2.8480  -2.4390
    -2.2659  -2.0632  -1.9336  -1.0378  -0.4979  -0.2044   0.4843   1.2364
     1.8689   2.0323   2.4865   3.4662

          k = 0.0000-0.8665 0.0000 (  7912 PWs)   bands (ev):

   -13.5846 -13.4556 -13.4015 -13.2675 -10.4913 -10.3914  -9.4392  -9.3190
    -8.2504  -8.1945  -7.9822  -7.9166  -7.0165  -6.9502  -5.1162  -5.0742
    -4.1645  -4.0545  -3.6280  -3.5741  -3.5082  -3.4749  -2.9291  -2.8785
    -2.6336  -2.5634  -1.8605  -1.7258  -1.2807  -1.2037   1.1886   1.2924
     2.3638   2.4089   4.2591   4.2661

          k =-0.4998 0.0000 0.0000 (  7894 PWs)   bands (ev):

   -14.1579 -14.1306 -11.5643 -11.5385 -11.0936 -11.0700 -10.6883 -10.5136
    -9.0262  -8.9275  -6.8325  -6.5021  -6.3022  -6.0659  -5.3113  -5.2661
    -4.9562  -4.8874  -4.8072  -4.3089  -3.3924  -3.0315  -1.7729  -1.5810
    -1.3613  -1.2929  -1.1771  -1.1306  -0.7349  -0.5220  -0.3521  -0.3179
     1.6292   1.9251   3.5238   3.5437

          k =-0.4998 0.4333 0.0000 (  7932 PWs)   bands (ev):

   -13.9811 -13.9542 -12.5684 -12.5427 -10.5316 -10.3610  -9.7982  -9.7745
    -9.4158  -9.2855  -6.8495  -6.6026  -6.0622  -6.0229  -5.9351  -5.7843
    -4.7208  -4.6971  -4.6278  -4.2946  -2.8986  -2.6496  -2.5702  -2.5216
    -1.8470  -1.6019  -1.5916  -1.3578  -1.1236  -0.8959   0.5306   0.7622
     1.7254   1.8213   3.8019   3.8134

          k =-0.4998-0.8665 0.0000 (  7936 PWs)   bands (ev):

   -13.5119 -13.4858 -13.3809 -13.3545 -10.1294 -10.0240  -9.9735  -9.8697
    -8.1049  -8.0636  -8.0461  -8.0042  -6.2565  -6.1924  -5.9457  -5.8902
    -3.9758  -3.9036  -3.8629  -3.7906  -3.5023  -3.4536  -3.2111  -3.1593
    -2.1488  -2.0505  -1.8003  -1.6963  -0.4723  -0.3889  -0.2359  -0.1560
     3.9105   4.0190   4.0929   4.2268

     the Fermi energy is    -0.2145 ev

!    total energy              =    -125.55622896 Ry
     estimated scf accuracy    <          8.9E-09 Ry
     smearing contrib. (-TS)   =      -0.00063369 Ry
     internal energy E=F+TS    =    -125.55559527 Ry

     The total energy is F=E-TS. E is the sum of the following terms:
     one-electron contribution =    -224.93338269 Ry
     hartree contribution      =     128.08459864 Ry
     xc contribution           =     -58.44252381 Ry
     ewald contribution        =      29.73571259 Ry

     convergence has been achieved in   6 iterations

     negative rho (up, down):  4.979E-03 0.000E+00

     Forces acting on atoms (cartesian axes, Ry/au):

     atom    1 type  1   force =    -0.03706671   -0.02293840    0.00000000
     atom    2 type  1   force =    -0.00309349   -0.03465927    0.00000000
     atom    3 type  1   force =    -0.07772805   -0.02371547    0.00000000
     atom    4 type  1   force =    -0.01229035    0.01003162    0.00000000
     atom    5 type  1   force =     0.00707917    0.01102316    0.00000000
     atom    6 type  1   force =    -0.04642980   -0.00903449    0.00000000
     atom    7 type  1   force =    -0.00195562   -0.00575561    0.00000000
     atom    8 type  1   force =    -0.07304003   -0.00835199    0.00000000
     atom    9 type  1   force =    -0.01086231    0.04173683    0.00000000
     atom   10 type  1   force =     0.00650927    0.04187404    0.00000000
     atom   11 type  1   force =     0.07803653   -0.02450092    0.00000000
     atom   12 type  1   force =     0.00251557   -0.03417274    0.00000000
     atom   13 type  1   force =     0.03369245   -0.02228860    0.00000000
     atom   14 type  1   force =    -0.00610191    0.01098021    0.00000000
     atom   15 type  1   force =     0.01530884    0.01004649    0.00000000
     atom   16 type  1   force =     0.07285007   -0.00849363    0.00000000
     atom   17 type  1   force =     0.00082362   -0.00575857    0.00000000
     atom   18 type  1   force =     0.04321106   -0.00892702    0.00000000
     atom   19 type  1   force =    -0.00525671    0.04160172    0.00000000
     atom   20 type  1   force =     0.01379841    0.04130264    0.00000000

     Total force =     0.000000     Total SCF correction =     0.000000


     Computing stress (Cartesian axis) and pressure


     negative rho (up, down):  4.979E-03 0.000E+00
          total   stress  (Ry/bohr**3)                   (kbar)     P=       -1.33
   0.00000382   0.00000124   0.00000000            0.56        0.18        0.00
   0.00000124   0.00000029   0.00000000            0.18        0.04        0.00
   0.00000000   0.00000000  -0.00003129            0.00        0.00       -4.60

     Energy error            =      3.1E-06
     Gradient error          =      0.0E+00
     Cell gradient error     =      3.8E-06


     number of scf cycles    =   4
     number of bfgs steps    =   3

     enthalpy old            =    -125.5562258109 Ry
     enthalpy new            =    -125.5562289587 Ry

     CASE: enthalpy_new < enthalpy_old

     new trust radius        =       0.0020070056 bohr
     new conv_thr            =       0.0000000100 Ry

     new unit-cell volume =   2838.90621 a.u.^3 (   420.68250 Ang^3 )
     density =      0.85347 g/cm^3

CELL_PARAMETERS (alat= 19.15216671)
   1.000501103   0.000000000   0.000000000
   0.000000000   0.577007812   0.000000000
   0.000000000   0.000000000   0.700000000

ATOMIC_POSITIONS (crystal)
B             0.5082218959        0.0041997725        0.0000000000    0   0   0
B             0.6776244512        0.0041997725        0.0000000000    0   0   0
B             0.8470320887        0.0041997725        0.0000000000    0   0   0
B             0.5929257146        0.2496377061        0.0000000000    0   0   0
B             0.7618251393        0.2496377061        0.0000000000    0   0   0
B             0.5082218959        0.5001542435        0.0000000000    0   0   0
B             0.6776244512        0.5001542435        0.0000000000    0   0   0
B             0.8470320887        0.5001542435        0.0000000000    0   0   0
B             0.5929257146        0.7455922069        0.0000000000    0   0   0
B             0.7618251393        0.7455922069        0.0000000000    0   0   0
B             0.0000093308        0.0041997725        0.0000000000    0   0   0
B             0.1694117031        0.0041997725        0.0000000000    0   0   0
B             0.3388193406        0.0041997725        0.0000000000    0   0   0
B             0.0847131698        0.2496377061        0.0000000000    0   0   0
B             0.2536123912        0.2496377061        0.0000000000    0   0   0
B             0.0000093308        0.5001542435        0.0000000000    0   0   0
B             0.1694117031        0.5001542435        0.0000000000    0   0   0
B             0.3388193406        0.5001542435        0.0000000000    0   0   0
B             0.0847131698        0.7455922069        0.0000000000    0   0   0
B             0.2536123912        0.7455922069        0.0000000000    0   0   0



     Writing output data file ./b12_22.save/
     NEW-OLD atomic charge density approx. for the potential

     Check: negative core charge=   -0.000005

     negative rho (up, down):  4.976E-03 0.000E+00
     extrapolated charge   60.01038, renormalised to   60.00000

     total cpu time spent up to now is      280.0 secs

     Self-consistent Calculation

     iteration #  1     ecut=    30.00 Ry     beta= 0.10
     Davidson diagonalization with overlap
     ethr =  1.00E-06,  avg # of iterations =  2.0

     Threshold (ethr) on eigenvalues was too large:
     Diagonalizing with lowered threshold

     Davidson diagonalization with overlap
     ethr =  8.99E-09,  avg # of iterations =  1.7

     negative rho (up, down):  4.974E-03 0.000E+00

     total cpu time spent up to now is      289.0 secs

     total energy              =    -125.55622613 Ry
     estimated scf accuracy    <       0.00000592 Ry

     iteration #  2     ecut=    30.00 Ry     beta= 0.10
     Davidson diagonalization with overlap
     ethr =  9.86E-09,  avg # of iterations =  2.0

     negative rho (up, down):  4.974E-03 0.000E+00

     total cpu time spent up to now is      294.8 secs

     total energy              =    -125.55623004 Ry
     estimated scf accuracy    <       0.00000048 Ry

     iteration #  3     ecut=    30.00 Ry     beta= 0.10
     Davidson diagonalization with overlap
     ethr =  8.04E-10,  avg # of iterations =  1.5

     negative rho (up, down):  4.976E-03 0.000E+00

     total cpu time spent up to now is      299.2 secs

     total energy              =    -125.55622991 Ry
     estimated scf accuracy    <       0.00000035 Ry

     iteration #  4     ecut=    30.00 Ry     beta= 0.10
     Davidson diagonalization with overlap
     ethr =  5.86E-10,  avg # of iterations =  2.0

     negative rho (up, down):  4.976E-03 0.000E+00

     total cpu time spent up to now is      304.5 secs

     total energy              =    -125.55622998 Ry
     estimated scf accuracy    <       0.00000006 Ry

     iteration #  5     ecut=    30.00 Ry     beta= 0.10
     Davidson diagonalization with overlap
     ethr =  9.67E-11,  avg # of iterations =  1.0

     negative rho (up, down):  4.977E-03 0.000E+00

     total cpu time spent up to now is      308.7 secs

     total energy              =    -125.55622998 Ry
     estimated scf accuracy    <       0.00000003 Ry

     iteration #  6     ecut=    30.00 Ry     beta= 0.10
     Davidson diagonalization with overlap
     ethr =  4.99E-11,  avg # of iterations =  2.0

     negative rho (up, down):  4.979E-03 0.000E+00

     total cpu time spent up to now is      313.2 secs

     total energy              =    -125.55622997 Ry
     estimated scf accuracy    <       0.00000001 Ry

     iteration #  7     ecut=    30.00 Ry     beta= 0.10
     Davidson diagonalization with overlap
     ethr =  2.25E-11,  avg # of iterations =  3.8

     negative rho (up, down):  4.979E-03 0.000E+00

     total cpu time spent up to now is      319.5 secs

     total energy              =    -125.55622997 Ry
     estimated scf accuracy    <       0.00000007 Ry

     iteration #  8     ecut=    30.00 Ry     beta= 0.10
     Davidson diagonalization with overlap
     ethr =  2.25E-11,  avg # of iterations =  3.3

     negative rho (up, down):  4.981E-03 0.000E+00

     total cpu time spent up to now is      325.0 secs

     End of self-consistent calculation

          k = 0.0000 0.0000 0.0000 (  7973 PWs)   bands (ev):

   -14.2345 -14.0397 -11.6351 -11.4543 -11.1508 -11.0970 -11.0052  -9.8535
    -9.2610  -8.6722  -7.9663  -6.7193  -5.4026  -5.1601  -5.1431  -5.0843
    -4.9127  -4.9086  -4.7284  -4.6187  -4.0760  -3.6073  -2.3482  -2.1700
    -1.5390  -1.1880  -0.6929  -0.4500  -0.2206  -0.1779   0.0811   0.2299
     0.5491   1.8588   3.2034   3.3353

          k = 0.0000 0.4333 0.0000 (  7931 PWs)   bands (ev):

   -14.0565 -13.8645 -12.6374 -12.4605 -10.9297  -9.8520  -9.7304  -9.7300
    -9.6908  -8.9180  -7.8298  -6.2382  -6.2015  -6.1862  -5.9916  -4.9139
    -4.8838  -4.3565  -4.1666  -4.1306  -3.4054  -3.1835  -2.8473  -2.4409
    -2.2655  -2.0625  -1.9337  -1.0382  -0.4984  -0.2044   0.4828   1.2370
     1.8693   2.0310   2.4850   3.4657

          k = 0.0000-0.8665 0.0000 (  7912 PWs)   bands (ev):

   -13.5837 -13.4547 -13.4006 -13.2668 -10.4909 -10.3911  -9.4394  -9.3193
    -8.2492  -8.1933  -7.9809  -7.9154  -7.0161  -6.9498  -5.1158  -5.0739
    -4.1638  -4.0539  -3.6277  -3.5738  -3.5080  -3.4745  -2.9305  -2.8795
    -2.6349  -2.5651  -1.8605  -1.7258  -1.2807  -1.2038   1.1871   1.2908
     2.3629   2.4080   4.2585   4.2656

          k =-0.4997 0.0000 0.0000 (  7894 PWs)   bands (ev):

   -14.1571 -14.1298 -11.5632 -11.5374 -11.0926 -11.0690 -10.6883 -10.5135
    -9.0258  -8.9271  -6.8330  -6.5024  -6.3021  -6.0658  -5.3094  -5.2642
    -4.9557  -4.8869  -4.8070  -4.3084  -3.3937  -3.0329  -1.7743  -1.5823
    -1.3620  -1.2922  -1.1766  -1.1311  -0.7344  -0.5216  -0.3517  -0.3175
     1.6287   1.9247   3.5231   3.5430

          k =-0.4997 0.4333 0.0000 (  7932 PWs)   bands (ev):

   -13.9803 -13.9534 -12.5674 -12.5418 -10.5315 -10.3609  -9.7970  -9.7733
    -9.4155  -9.2852  -6.8495  -6.6022  -6.0611  -6.0225  -5.9340  -5.7840
    -4.7210  -4.6966  -4.6273  -4.2946  -2.8996  -2.6490  -2.5696  -2.5227
    -1.8477  -1.6023  -1.5923  -1.3582  -1.1243  -0.8966   0.5303   0.7620
     1.7257   1.8215   3.8012   3.8127

          k =-0.4997-0.8665 0.0000 (  7936 PWs)   bands (ev):

   -13.5110 -13.4849 -13.3801 -13.3536 -10.1292 -10.0238  -9.9733  -9.8696
    -8.1035  -8.0623  -8.0448  -8.0029  -6.2565  -6.1924  -5.9456  -5.8901
    -3.9752  -3.9031  -3.8624  -3.7902  -3.5022  -3.4537  -3.2112  -3.1595
    -2.1498  -2.0516  -1.8013  -1.6973  -0.4729  -0.3895  -0.2365  -0.1566
     3.9103   4.0185   4.0929   4.2267

     the Fermi energy is    -0.2148 ev

!    total energy              =    -125.55622998 Ry
     estimated scf accuracy    <          9.2E-10 Ry
     smearing contrib. (-TS)   =      -0.00062663 Ry
     internal energy E=F+TS    =    -125.55560334 Ry

     The total energy is F=E-TS. E is the sum of the following terms:
     one-electron contribution =    -224.89023390 Ry
     hartree contribution      =     128.06110342 Ry
     xc contribution           =     -58.43950256 Ry
     ewald contribution        =      29.71302970 Ry

     convergence has been achieved in   8 iterations

     negative rho (up, down):  4.981E-03 0.000E+00

     Forces acting on atoms (cartesian axes, Ry/au):

     atom    1 type  1   force =    -0.03705653   -0.02291837    0.00000000
     atom    2 type  1   force =    -0.00308401   -0.03463177    0.00000000
     atom    3 type  1   force =    -0.07761562   -0.02369977    0.00000000
     atom    4 type  1   force =    -0.01214544    0.01001650    0.00000000
     atom    5 type  1   force =     0.00693156    0.01101120    0.00000000
     atom    6 type  1   force =    -0.04642679   -0.00903643    0.00000000
     atom    7 type  1   force =    -0.00194365   -0.00573972    0.00000000
     atom    8 type  1   force =    -0.07292797   -0.00835272    0.00000000
     atom    9 type  1   force =    -0.01070611    0.04171227    0.00000000
     atom   10 type  1   force =     0.00635570    0.04184952    0.00000000
     atom   11 type  1   force =     0.07792620   -0.02448515    0.00000000
     atom   12 type  1   force =     0.00250685   -0.03414525    0.00000000
     atom   13 type  1   force =     0.03368135   -0.02226877    0.00000000
     atom   14 type  1   force =    -0.00595574    0.01096789    0.00000000
     atom   15 type  1   force =     0.01516327    0.01003171    0.00000000
     atom   16 type  1   force =     0.07274034   -0.00849415    0.00000000
     atom   17 type  1   force =     0.00081242   -0.00574267    0.00000000
     atom   18 type  1   force =     0.04320728   -0.00892932    0.00000000
     atom   19 type  1   force =    -0.00510481    0.04157678    0.00000000
     atom   20 type  1   force =     0.01364169    0.04127821    0.00000000

     Total force =     0.000000     Total SCF correction =     0.000000


     Computing stress (Cartesian axis) and pressure


     negative rho (up, down):  4.981E-03 0.000E+00
          total   stress  (Ry/bohr**3)                   (kbar)     P=       -1.54
   0.00000001   0.00000124   0.00000000            0.00        0.18        0.00
   0.00000124   0.00000012   0.00000000            0.18        0.02        0.00
   0.00000000   0.00000000  -0.00003145            0.00        0.00       -4.63

     Energy error            =      1.0E-06
     Gradient error          =      0.0E+00
     Cell gradient error     =      1.2E-07


     bfgs converged in   5 scf cycles and   4 bfgs steps
     (criteria: energy <  1.0E-04 Ry, force <  1.0E-03Ry/Bohr, cell <  5.0E-01kbar)

     End of BFGS Geometry Optimization

     Final enthalpy =    -125.5562299769 Ry

     File ./b12_22.bfgs deleted, as requested
Begin final coordinates
     new unit-cell volume =   2838.90621 a.u.^3 (   420.68250 Ang^3 )
     density =      0.85347 g/cm^3

CELL_PARAMETERS (alat= 19.15216671)
   1.000501103   0.000000000   0.000000000
   0.000000000   0.577007812   0.000000000
   0.000000000   0.000000000   0.700000000

ATOMIC_POSITIONS (crystal)
B             0.5082218959        0.0041997725        0.0000000000    0   0   0
B             0.6776244512        0.0041997725        0.0000000000    0   0   0
B             0.8470320887        0.0041997725        0.0000000000    0   0   0
B             0.5929257146        0.2496377061        0.0000000000    0   0   0
B             0.7618251393        0.2496377061        0.0000000000    0   0   0
B             0.5082218959        0.5001542435        0.0000000000    0   0   0
B             0.6776244512        0.5001542435        0.0000000000    0   0   0
B             0.8470320887        0.5001542435        0.0000000000    0   0   0
B             0.5929257146        0.7455922069        0.0000000000    0   0   0
B             0.7618251393        0.7455922069        0.0000000000    0   0   0
B             0.0000093308        0.0041997725        0.0000000000    0   0   0
B             0.1694117031        0.0041997725        0.0000000000    0   0   0
B             0.3388193406        0.0041997725        0.0000000000    0   0   0
B             0.0847131698        0.2496377061        0.0000000000    0   0   0
B             0.2536123912        0.2496377061        0.0000000000    0   0   0
B             0.0000093308        0.5001542435        0.0000000000    0   0   0
B             0.1694117031        0.5001542435        0.0000000000    0   0   0
B             0.3388193406        0.5001542435        0.0000000000    0   0   0
B             0.0847131698        0.7455922069        0.0000000000    0   0   0
B             0.2536123912        0.7455922069        0.0000000000    0   0   0
End final coordinates



     Writing output data file ./b12_22.save/

     Final scf calculation at the relaxed structure.
     The G-vectors are recalculated for the final unit cell
     Results may differ from those at the preceding step.

     Parallelization info
     --------------------
     sticks:   dense  smooth     PW     G-vecs:    dense   smooth      PW
     Min        1681    1012    285                67763    31517    4693
     Max        1682    1013    286                67764    31518    4694
     Sum        3363    2025    571               135527    63035    9387



     bravais-lattice index     =            8
     lattice parameter (alat)  =      19.1522  a.u.
     unit-cell volume          =    2838.9062 (a.u.)^3
     number of atoms/cell      =           20
     number of atomic types    =            1
     number of electrons       =        60.00
     number of Kohn-Sham states=           36
     kinetic-energy cutoff     =      30.0000  Ry
     charge density cutoff     =     200.0000  Ry
     scf convergence threshold =      1.0E-08
     mixing beta               =       0.1000
     number of iterations used =            8  plain     mixing
     press convergence thresh. =      5.0E-01
     Exchange-correlation= PBE
                           (   1   4   3   4   0   0   0)

     celldm(1)=  19.152167  celldm(2)=   0.580193  celldm(3)=   0.700000
     celldm(4)=   0.000000  celldm(5)=   0.000000  celldm(6)=   0.000000

     crystal axes: (cart. coord. in units of alat)
               a(1) = (   1.000501   0.000000   0.000000 )  
               a(2) = (   0.000000   0.577008   0.000000 )  
               a(3) = (   0.000000   0.000000   0.700000 )  

     reciprocal axes: (cart. coord. in units 2 pi/alat)
               b(1) = (  0.999499  0.000000  0.000000 )  
               b(2) = (  0.000000  1.733079  0.000000 )  
               b(3) = (  0.000000  0.000000  1.428571 )  


     PseudoPot. # 1 for B  read from file:
     ./B.pbe-n-rrkjus_psl.1.0.0.UPF
     MD5 check sum: 21bc42b8719306ef1fe0545c7dabf1c6
     Pseudo is Ultrasoft + core correction, Zval =  3.0
     Generated using &quot;atomic&quot; code by A. Dal Corso  v.6.3MaX
     Using radial grid of 1059 points,  4 beta functions with: 
                l(1) =   0
                l(2) =   0
                l(3) =   1
                l(4) =   1
     Q(r) pseudized with 0 coefficients 


     atomic species   valence    mass     pseudopotential
        B              3.00    10.81100     B ( 1.00)

      2 Sym. Ops. (no inversion) found



   Cartesian axes

     site n.     atom                  positions (alat units)
         1           B   tau(   1) = (   0.5084766   0.0024233   0.0000000  )
         2           B   tau(   2) = (   0.6779640   0.0024233   0.0000000  )
         3           B   tau(   3) = (   0.8474565   0.0024233   0.0000000  )
         4           B   tau(   4) = (   0.5932228   0.1440429   0.0000000  )
         5           B   tau(   5) = (   0.7622069   0.1440429   0.0000000  )
         6           B   tau(   6) = (   0.5084766   0.2885929   0.0000000  )
         7           B   tau(   7) = (   0.6779640   0.2885929   0.0000000  )
         8           B   tau(   8) = (   0.8474565   0.2885929   0.0000000  )
         9           B   tau(   9) = (   0.5932228   0.4302125   0.0000000  )
        10           B   tau(  10) = (   0.7622069   0.4302125   0.0000000  )
        11           B   tau(  11) = (   0.0000093   0.0024233   0.0000000  )
        12           B   tau(  12) = (   0.1694966   0.0024233   0.0000000  )
        13           B   tau(  13) = (   0.3389891   0.0024233   0.0000000  )
        14           B   tau(  14) = (   0.0847556   0.1440429   0.0000000  )
        15           B   tau(  15) = (   0.2537395   0.1440429   0.0000000  )
        16           B   tau(  16) = (   0.0000093   0.2885929   0.0000000  )
        17           B   tau(  17) = (   0.1694966   0.2885929   0.0000000  )
        18           B   tau(  18) = (   0.3389891   0.2885929   0.0000000  )
        19           B   tau(  19) = (   0.0847556   0.4302125   0.0000000  )
        20           B   tau(  20) = (   0.2537395   0.4302125   0.0000000  )

     number of k points=     6  Marzari-Vanderbilt smearing, width (Ry)=  0.0050
                       cart. coord. in units 2pi/alat
        k(    1) = (   0.0000000   0.0000000   0.0000000), wk =   0.2500000
        k(    2) = (   0.0000000   0.4332697   0.0000000), wk =   0.5000000
        k(    3) = (   0.0000000  -0.8665394   0.0000000), wk =   0.2500000
        k(    4) = (  -0.4997496   0.0000000   0.0000000), wk =   0.2500000
        k(    5) = (  -0.4997496   0.4332697   0.0000000), wk =   0.5000000
        k(    6) = (  -0.4997496  -0.8665394   0.0000000), wk =   0.2500000

     Dense  grid:   135527 G-vectors     FFT dimensions: (  90,  50,  64)

     Smooth grid:    63035 G-vectors     FFT dimensions: (  72,  40,  48)

     Estimated max dynamical RAM per process >     168.68 MB

     Estimated total dynamical RAM >     337.36 MB

     Check: negative core charge=   -0.000005

     Initial potential from superposition of free atoms

     starting charge   59.99435, renormalised to   60.00000
     Starting wfcs are   80 randomized atomic wfcs

     total cpu time spent up to now is      340.7 secs

     Self-consistent Calculation

     iteration #  1     ecut=    30.00 Ry     beta= 0.10
     Davidson diagonalization with overlap
     c_bands:  1 eigenvalues not converged
     c_bands:  1 eigenvalues not converged
     c_bands:  1 eigenvalues not converged
     ethr =  1.00E-06,  avg # of iterations = 16.8

     total cpu time spent up to now is      358.0 secs

     total energy              =    -126.22147548 Ry
     estimated scf accuracy    <       2.18010890 Ry

     iteration #  2     ecut=    30.00 Ry     beta= 0.10
     Davidson diagonalization with overlap
     ethr =  3.63E-03,  avg # of iterations =  1.0

     negative rho (up, down):  1.912E-02 0.000E+00

     total cpu time spent up to now is      362.2 secs

     total energy              =    -125.36562561 Ry
     estimated scf accuracy    <       1.58027150 Ry

     iteration #  3     ecut=    30.00 Ry     beta= 0.10
     Davidson diagonalization with overlap
     ethr =  2.63E-03,  avg # of iterations =  2.0

     negative rho (up, down):  2.191E-02 0.000E+00

     total cpu time spent up to now is      366.9 secs

     total energy              =    -125.51869571 Ry
     estimated scf accuracy    <       0.15865436 Ry

     iteration #  4     ecut=    30.00 Ry     beta= 0.10
     Davidson diagonalization with overlap
     ethr =  2.64E-04,  avg # of iterations =  2.7

     negative rho (up, down):  2.930E-02 0.000E+00

     total cpu time spent up to now is      371.4 secs

     total energy              =    -125.52924071 Ry
     estimated scf accuracy    <       0.03211196 Ry

     iteration #  5     ecut=    30.00 Ry     beta= 0.10
     Davidson diagonalization with overlap
     ethr =  5.35E-05,  avg # of iterations =  5.7

     negative rho (up, down):  2.315E-02 0.000E+00

     total cpu time spent up to now is      377.4 secs

     total energy              =    -125.53589805 Ry
     estimated scf accuracy    <       0.01339845 Ry

     iteration #  6     ecut=    30.00 Ry     beta= 0.10
     Davidson diagonalization with overlap
     ethr =  2.23E-05,  avg # of iterations =  3.3

     negative rho (up, down):  3.287E-02 0.000E+00

     total cpu time spent up to now is      382.3 secs

     total energy              =    -125.53652046 Ry
     estimated scf accuracy    <       0.00697008 Ry

     iteration #  7     ecut=    30.00 Ry     beta= 0.10
     Davidson diagonalization with overlap
     ethr =  1.16E-05,  avg # of iterations =  3.3

     negative rho (up, down):  2.895E-02 0.000E+00

     total cpu time spent up to now is      387.7 secs

     total energy              =    -125.53956715 Ry
     estimated scf accuracy    <       0.00313785 Ry

     iteration #  8     ecut=    30.00 Ry     beta= 0.10
     Davidson diagonalization with overlap
     ethr =  5.23E-06,  avg # of iterations =  2.5

     negative rho (up, down):  3.143E-02 0.000E+00

     total cpu time spent up to now is      392.0 secs

     total energy              =    -125.53953063 Ry
     estimated scf accuracy    <       0.00118874 Ry

     iteration #  9     ecut=    30.00 Ry     beta= 0.10
     Davidson diagonalization with overlap
     ethr =  1.98E-06,  avg # of iterations =  5.7

     negative rho (up, down):  2.744E-02 0.000E+00

     total cpu time spent up to now is      398.2 secs

     total energy              =    -125.54186263 Ry
     estimated scf accuracy    <       0.00046362 Ry

     iteration # 10     ecut=    30.00 Ry     beta= 0.10
     Davidson diagonalization with overlap
     ethr =  7.73E-07,  avg # of iterations =  2.7

     negative rho (up, down):  2.437E-02 0.000E+00

     total cpu time spent up to now is      403.9 secs

     total energy              =    -125.54362757 Ry
     estimated scf accuracy    <       0.00071073 Ry

     iteration # 11     ecut=    30.00 Ry     beta= 0.10
     Davidson diagonalization with overlap
     ethr =  7.73E-07,  avg # of iterations =  2.0

     negative rho (up, down):  2.121E-02 0.000E+00

     total cpu time spent up to now is      408.6 secs

     total energy              =    -125.54538547 Ry
     estimated scf accuracy    <       0.00007684 Ry

     iteration # 12     ecut=    30.00 Ry     beta= 0.10
     Davidson diagonalization with overlap
     ethr =  1.28E-07,  avg # of iterations =  3.3

     negative rho (up, down):  1.859E-02 0.000E+00

     total cpu time spent up to now is      414.6 secs

     total energy              =    -125.54685563 Ry
     estimated scf accuracy    <       0.00004801 Ry

     iteration # 13     ecut=    30.00 Ry     beta= 0.10
     Davidson diagonalization with overlap
     ethr =  8.00E-08,  avg # of iterations =  2.0

     negative rho (up, down):  1.648E-02 0.000E+00

     total cpu time spent up to now is      419.5 secs

     total energy              =    -125.54809975 Ry
     estimated scf accuracy    <       0.00001692 Ry

     iteration # 14     ecut=    30.00 Ry     beta= 0.10
     Davidson diagonalization with overlap
     c_bands:  1 eigenvalues not converged
     ethr =  2.82E-08,  avg # of iterations =  6.5

     negative rho (up, down):  1.456E-02 0.000E+00

     total cpu time spent up to now is      426.0 secs

     total energy              =    -125.54922828 Ry
     estimated scf accuracy    <       0.00000679 Ry

     iteration # 15     ecut=    30.00 Ry     beta= 0.10
     Davidson diagonalization with overlap
     ethr =  1.13E-08,  avg # of iterations =  4.2

     negative rho (up, down):  1.289E-02 0.000E+00

     total cpu time spent up to now is      432.2 secs

     total energy              =    -125.55019188 Ry
     estimated scf accuracy    <       0.00000551 Ry

     iteration # 16     ecut=    30.00 Ry     beta= 0.10
     Davidson diagonalization with overlap
     ethr =  9.19E-09,  avg # of iterations =  2.0

     negative rho (up, down):  1.140E-02 0.000E+00

     total cpu time spent up to now is      437.1 secs

     total energy              =    -125.55099371 Ry
     estimated scf accuracy    <       0.00000449 Ry

     iteration # 17     ecut=    30.00 Ry     beta= 0.10
     Davidson diagonalization with overlap
     ethr =  7.49E-09,  avg # of iterations =  2.0

     negative rho (up, down):  1.038E-02 0.000E+00

     total cpu time spent up to now is      442.0 secs

     total energy              =    -125.55167278 Ry
     estimated scf accuracy    <       0.00000796 Ry

     iteration # 18     ecut=    30.00 Ry     beta= 0.10
     Davidson diagonalization with overlap
     ethr =  7.49E-09,  avg # of iterations =  4.0

     negative rho (up, down):  9.332E-03 0.000E+00

     total cpu time spent up to now is      448.2 secs

     total energy              =    -125.55223460 Ry
     estimated scf accuracy    <       0.00000421 Ry

     iteration # 19     ecut=    30.00 Ry     beta= 0.10
     Davidson diagonalization with overlap
     ethr =  7.02E-09,  avg # of iterations =  2.3

     negative rho (up, down):  8.481E-03 0.000E+00

     total cpu time spent up to now is      453.2 secs

     total energy              =    -125.55268288 Ry
     estimated scf accuracy    <       0.00000152 Ry

     iteration # 20     ecut=    30.00 Ry     beta= 0.10
     Davidson diagonalization with overlap
     ethr =  2.53E-09,  avg # of iterations =  2.0

     negative rho (up, down):  7.772E-03 0.000E+00

     total cpu time spent up to now is      458.0 secs

     total energy              =    -125.55304655 Ry
     estimated scf accuracy    <       0.00000172 Ry

     iteration # 21     ecut=    30.00 Ry     beta= 0.10
     Davidson diagonalization with overlap
     ethr =  2.53E-09,  avg # of iterations =  2.0

     negative rho (up, down):  7.163E-03 0.000E+00

     total cpu time spent up to now is      462.9 secs

     total energy              =    -125.55334684 Ry
     estimated scf accuracy    <       0.00000158 Ry

     iteration # 22     ecut=    30.00 Ry     beta= 0.10
     Davidson diagonalization with overlap
     ethr =  2.53E-09,  avg # of iterations =  2.2

     negative rho (up, down):  6.675E-03 0.000E+00

     total cpu time spent up to now is      468.3 secs

     total energy              =    -125.55358387 Ry
     estimated scf accuracy    <       0.00000194 Ry

     iteration # 23     ecut=    30.00 Ry     beta= 0.10
     Davidson diagonalization with overlap
     ethr =  2.53E-09,  avg # of iterations =  2.0

     negative rho (up, down):  6.281E-03 0.000E+00

     total cpu time spent up to now is      473.1 secs

     total energy              =    -125.55377553 Ry
     estimated scf accuracy    <       0.00000262 Ry

     iteration # 24     ecut=    30.00 Ry     beta= 0.10
     Davidson diagonalization with overlap
     ethr =  2.53E-09,  avg # of iterations =  2.0

     negative rho (up, down):  5.977E-03 0.000E+00

     total cpu time spent up to now is      478.0 secs

     total energy              =    -125.55392749 Ry
     estimated scf accuracy    <       0.00000298 Ry

     iteration # 25     ecut=    30.00 Ry     beta= 0.10
     Davidson diagonalization with overlap
     ethr =  2.53E-09,  avg # of iterations =  2.0

     negative rho (up, down):  5.739E-03 0.000E+00

     total cpu time spent up to now is      482.7 secs

     total energy              =    -125.55404781 Ry
     estimated scf accuracy    <       0.00000249 Ry

     iteration # 26     ecut=    30.00 Ry     beta= 0.10
     Davidson diagonalization with overlap
     ethr =  2.53E-09,  avg # of iterations =  2.0

     negative rho (up, down):  5.550E-03 0.000E+00

     total cpu time spent up to now is      487.4 secs

     total energy              =    -125.55414067 Ry
     estimated scf accuracy    <       0.00000138 Ry

     iteration # 27     ecut=    30.00 Ry     beta= 0.10
     Davidson diagonalization with overlap
     ethr =  2.31E-09,  avg # of iterations =  2.0

     negative rho (up, down):  5.364E-03 0.000E+00

     total cpu time spent up to now is      492.0 secs

     total energy              =    -125.55421214 Ry
     estimated scf accuracy    <       0.00000055 Ry

     iteration # 28     ecut=    30.00 Ry     beta= 0.10
     Davidson diagonalization with overlap
     ethr =  9.20E-10,  avg # of iterations =  2.0

     negative rho (up, down):  5.237E-03 0.000E+00

     total cpu time spent up to now is      496.7 secs

     total energy              =    -125.55426502 Ry
     estimated scf accuracy    <       0.00000075 Ry

     iteration # 29     ecut=    30.00 Ry     beta= 0.10
     Davidson diagonalization with overlap
     ethr =  9.20E-10,  avg # of iterations =  2.0

     negative rho (up, down):  5.146E-03 0.000E+00

     total cpu time spent up to now is      501.5 secs

     total energy              =    -125.55431119 Ry
     estimated scf accuracy    <       0.00000086 Ry

     iteration # 30     ecut=    30.00 Ry     beta= 0.10
     Davidson diagonalization with overlap
     ethr =  9.20E-10,  avg # of iterations =  2.0

     negative rho (up, down):  5.078E-03 0.000E+00

     total cpu time spent up to now is      506.4 secs

     total energy              =    -125.55434751 Ry
     estimated scf accuracy    <       0.00000032 Ry

     iteration # 31     ecut=    30.00 Ry     beta= 0.10
     Davidson diagonalization with overlap
     ethr =  5.27E-10,  avg # of iterations =  2.0

     negative rho (up, down):  5.025E-03 0.000E+00

     total cpu time spent up to now is      511.1 secs

     total energy              =    -125.55437714 Ry
     estimated scf accuracy    <       0.00000013 Ry

     iteration # 32     ecut=    30.00 Ry     beta= 0.10
     Davidson diagonalization with overlap
     ethr =  2.16E-10,  avg # of iterations =  2.0

     negative rho (up, down):  4.984E-03 0.000E+00

     total cpu time spent up to now is      515.8 secs

     total energy              =    -125.55440050 Ry
     estimated scf accuracy    <       0.00000003 Ry

     iteration # 33     ecut=    30.00 Ry     beta= 0.10
     Davidson diagonalization with overlap
     ethr =  4.54E-11,  avg # of iterations =  2.7

     negative rho (up, down):  4.848E-03 0.000E+00

     total cpu time spent up to now is      520.9 secs

     End of self-consistent calculation

          k = 0.0000 0.0000 0.0000 (  7901 PWs)   bands (ev):

   -14.2352 -14.0405 -11.6347 -11.4547 -11.1503 -11.0976 -11.0055  -9.8542
    -9.2609  -8.6712  -7.9669  -6.7192  -5.4002  -5.1596  -5.1441  -5.0840
    -4.9130  -4.9076  -4.7280  -4.6197  -4.0757  -3.6077  -2.3471  -2.1710
    -1.5392  -1.1873  -0.6937  -0.4502  -0.2211  -0.1785   0.0812   0.2290
     0.5485   1.8580   3.2033   3.5270

          k = 0.0000 0.4333 0.0000 (  7871 PWs)   bands (ev):

   -14.0571 -13.8652 -12.6380 -12.4610 -10.9302  -9.8525  -9.7309  -9.7305
    -9.6907  -8.9183  -7.8302  -6.2383  -6.2013  -6.1846  -5.9914  -4.9136
    -4.8846  -4.3570  -4.1666  -4.1309  -3.4057  -3.1833  -2.8482  -2.4412
    -2.2665  -2.0613  -1.9342  -1.0383  -0.4987  -0.2052   0.4818   1.2361
     1.8687   2.0301   2.4841   3.4657

          k = 0.0000-0.8665 0.0000 (  7884 PWs)   bands (ev):

   -13.5844 -13.4555 -13.4014 -13.2675 -10.4914 -10.3916  -9.4402  -9.3198
    -8.2491  -8.1930  -7.9808  -7.9154  -7.0163  -6.9501  -5.1160  -5.0740
    -4.1648  -4.0549  -3.6287  -3.5740  -3.5089  -3.4747  -2.9307  -2.8797
    -2.6350  -2.5653  -1.8609  -1.7263  -1.2817  -1.2048   1.1861   1.2899
     2.3620   2.4070   4.2577   4.2663

          k =-0.4997 0.0000 0.0000 (  7866 PWs)   bands (ev):

   -14.1579 -14.1306 -11.5637 -11.5378 -11.0931 -11.0694 -10.6889 -10.5141
    -9.0264  -8.9276  -6.8336  -6.5030  -6.3020  -6.0660  -5.3097  -5.2646
    -4.9567  -4.8879  -4.8076  -4.3091  -3.3942  -3.0332  -1.7748  -1.5829
    -1.3629  -1.2925  -1.1768  -1.1318  -0.7343  -0.5214  -0.3520  -0.3177
     1.6281   1.9242   3.5156   3.5514

          k =-0.4997 0.4333 0.0000 (  7888 PWs)   bands (ev):

   -13.9810 -13.9541 -12.5680 -12.5423 -10.5322 -10.3615  -9.7969  -9.7737
    -9.4160  -9.2858  -6.8500  -6.6026  -6.0611  -6.0226  -5.9341  -5.7841
    -4.7214  -4.6975  -4.6281  -4.2949  -2.8999  -2.6490  -2.5697  -2.5230
    -1.8476  -1.6023  -1.5921  -1.3585  -1.1252  -0.8973   0.5295   0.7612
     1.7251   1.8207   3.7930   3.8212

          k =-0.4997-0.8665 0.0000 (  7880 PWs)   bands (ev):

   -13.5116 -13.4856 -13.3808 -13.3544 -10.1298 -10.0243  -9.9738  -9.8699
    -8.1031  -8.0615  -8.0445  -8.0024  -6.2565  -6.1923  -5.9454  -5.8900
    -3.9763  -3.9041  -3.8635  -3.7911  -3.5019  -3.4533  -3.2111  -3.1592
    -2.1492  -2.0512  -1.8007  -1.6970  -0.4739  -0.3905  -0.2373  -0.1574
     3.9093   4.0176   4.0921   4.2259

     the Fermi energy is    -0.2156 ev

!    total energy              =    -125.55450584 Ry
     estimated scf accuracy    <          5.9E-09 Ry
     smearing contrib. (-TS)   =      -0.00062444 Ry
     internal energy E=F+TS    =    -125.55388140 Ry

     The total energy is F=E-TS. E is the sum of the following terms:
     one-electron contribution =    -224.88567055 Ry
     hartree contribution      =     128.05927315 Ry
     xc contribution           =     -58.44051370 Ry
     ewald contribution        =      29.71302970 Ry

     convergence has been achieved in  33 iterations

     negative rho (up, down):  4.848E-03 0.000E+00

     Forces acting on atoms (cartesian axes, Ry/au):

     atom    1 type  1   force =    -0.03711712   -0.02230639    0.00000000
     atom    2 type  1   force =    -0.00311725   -0.03394497    0.00000000
     atom    3 type  1   force =    -0.07762710   -0.02323680    0.00000000
     atom    4 type  1   force =    -0.01230784    0.00964702    0.00000000
     atom    5 type  1   force =     0.00707390    0.01063160    0.00000000
     atom    6 type  1   force =    -0.04653472   -0.00937422    0.00000000
     atom    7 type  1   force =    -0.00196740   -0.00600074    0.00000000
     atom    8 type  1   force =    -0.07270914   -0.00866951    0.00000000
     atom    9 type  1   force =    -0.01070016    0.04164506    0.00000000
     atom   10 type  1   force =     0.00641223    0.04175884    0.00000000
     atom   11 type  1   force =     0.07783624   -0.02393533    0.00000000
     atom   12 type  1   force =     0.00241331   -0.03368052    0.00000000
     atom   13 type  1   force =     0.03371514   -0.02174261    0.00000000
     atom   14 type  1   force =    -0.00588600    0.01058769    0.00000000
     atom   15 type  1   force =     0.01531288    0.00968409    0.00000000
     atom   16 type  1   force =     0.07270962   -0.00881087    0.00000000
     atom   17 type  1   force =     0.00095809   -0.00603510    0.00000000
     atom   18 type  1   force =     0.04320108   -0.00925759    0.00000000
     atom   19 type  1   force =    -0.00520646    0.04160232    0.00000000
     atom   20 type  1   force =     0.01354072    0.04143804    0.00000000

     Total force =     0.000000     Total SCF correction =     0.000000


     Computing stress (Cartesian axis) and pressure


     negative rho (up, down):  4.848E-03 0.000E+00
          total   stress  (Ry/bohr**3)                   (kbar)     P=       -1.95
  -0.00000140   0.00000121   0.00000000           -0.21        0.18        0.00
   0.00000121  -0.00000592   0.00000000            0.18       -0.87        0.00
   0.00000000   0.00000000  -0.00003249            0.00        0.00       -4.78


     Writing output data file ./b12_22.save/

     init_run     :     12.30s CPU     12.41s WALL (       2 calls)
     electrons    :    442.89s CPU    447.66s WALL (       6 calls)
     update_pot   :     11.84s CPU     11.85s WALL (       4 calls)
     forces       :     21.31s CPU     21.53s WALL (       6 calls)
     stress       :     35.79s CPU     36.14s WALL (       6 calls)

     Called by init_run:
     wfcinit      :      7.31s CPU      7.35s WALL (       2 calls)
     potinit      :      1.91s CPU      1.93s WALL (       2 calls)
     hinit0       :      2.54s CPU      2.55s WALL (       2 calls)

     Called by electrons:
     c_bands      :    359.22s CPU    360.97s WALL (      86 calls)
     sum_band     :     56.28s CPU     58.01s WALL (      86 calls)
     v_of_rho     :      8.84s CPU      8.91s WALL (      90 calls)
     newd         :     18.18s CPU     19.47s WALL (      90 calls)
     mix_rho      :      1.30s CPU      1.30s WALL (      86 calls)

     Called by c_bands:
     init_us_2    :      2.59s CPU      2.61s WALL (    1116 calls)
     cegterg      :    352.57s CPU    354.28s WALL (     516 calls)

     Called by *egterg:
     cdiaghg      :      3.87s CPU      3.90s WALL (    1915 calls)
     h_psi        :    195.74s CPU    196.96s WALL (    1963 calls)
     s_psi        :     60.35s CPU     60.54s WALL (    1963 calls)
     g_psi        :      0.47s CPU      0.48s WALL (    1435 calls)

     Called by h_psi:
     h_psi:calbec :     62.44s CPU     62.62s WALL (    1963 calls)
     vloc_psi     :     72.48s CPU     73.36s WALL (    1963 calls)
     add_vuspsi   :     60.19s CPU     60.34s WALL (    1963 calls)

     General routines
     calbec       :     96.19s CPU     96.47s WALL (    2659 calls)
     fft          :      6.40s CPU      6.47s WALL (    1314 calls)
     ffts         :      0.26s CPU      0.26s WALL (     176 calls)
     fftw         :     72.25s CPU     73.15s WALL (  111212 calls)
     interpolate  :      0.70s CPU      0.71s WALL (      90 calls)

     Parallel routines
     fft_scatt_xy :     12.46s CPU     12.61s WALL (  112702 calls)
     fft_scatt_yz :     14.08s CPU     14.27s WALL (  112702 calls)

     PWSCF        :   8m45.20s CPU   8m50.75s WALL


   This run was terminated on:  15:22: 7  29Oct2021            

=------------------------------------------------------------------------------=
   JOB DONE.
=------------------------------------------------------------------------------=
