
     Program PWSCF v.6.7MaX starts on 30Oct2021 at 14:33:47 

     This program is part of the open-source Quantum ESPRESSO suite
     for quantum simulation of materials; please cite
         "P. Giannozzi et al., J. Phys.:Condens. Matter 21 395502 (2009);
         "P. Giannozzi et al., J. Phys.:Condens. Matter 29 465901 (2017);
          URL http://www.quantum-espresso.org", 
     in publications or presentations arising from this work. More details at
     http://www.quantum-espresso.org/quote

     Parallel version (MPI), running on     2 processors

     MPI processes distributed on     1 nodes
     R & G space division:  proc/nbgrp/npool/nimage =       2
     Waiting for input...
     Reading input from standard input

     Current dimensions of program PWSCF are:
     Max number of different atomic species (ntypx) = 10
     Max number of k-points (npk) =  40000
     Max angular momentum in pseudopotentials (lmaxx) =  3
     file B.pbe-n-rrkjus_psl.1.0.0.UPF: wavefunction(s)  2S renormalized

     Subspace diagonalization in iterative solution of the eigenvalue problem:
     a serial algorithm will be used

     Found symmetry operation: I + (  0.5000 -0.5000  0.0000)
     This is a supercell, fractional translations are disabled

     Parallelization info
     --------------------
     sticks:   dense  smooth     PW     G-vecs:    dense   smooth      PW
     Min         831     414    130                43093    15228    2606
     Max         832     415    131                43098    15231    2609
     Sum        1663     829    261                86191    30459    5215



     bravais-lattice index     =            8
     lattice parameter (alat)  =      15.7658  a.u.
     unit-cell volume          =    1371.6372 (a.u.)^3
     number of atoms/cell      =            8
     number of atomic types    =            1
     number of electrons       =        24.00
     number of Kohn-Sham states=           16
     kinetic-energy cutoff     =      30.0000  Ry
     charge density cutoff     =     240.0000  Ry
     scf convergence threshold =      1.0E-06
     mixing beta               =       0.7000
     number of iterations used =            8  plain     mixing
     energy convergence thresh.=      1.0E-04
     force convergence thresh. =      1.0E-03
     press convergence thresh. =      5.0E-01
     Exchange-correlation= PBE
                           (   1   4   3   4   0   0   0)
     nstep                     =           50


     celldm(1)=  15.765780  celldm(2)=   0.350020  celldm(3)=   1.000000
     celldm(4)=   0.000000  celldm(5)=   0.000000  celldm(6)=   0.000000

     crystal axes: (cart. coord. in units of alat)
               a(1) = (   1.000000   0.000000   0.000000 )  
               a(2) = (   0.000000   0.350020   0.000000 )  
               a(3) = (   0.000000   0.000000   1.000000 )  

     reciprocal axes: (cart. coord. in units 2 pi/alat)
               b(1) = (  1.000000  0.000000  0.000000 )  
               b(2) = (  0.000000  2.856980  0.000000 )  
               b(3) = (  0.000000  0.000000  1.000000 )  


     PseudoPot. # 1 for B  read from file:
     ./B.pbe-n-rrkjus_psl.1.0.0.UPF
     MD5 check sum: 21bc42b8719306ef1fe0545c7dabf1c6
     Pseudo is Ultrasoft + core correction, Zval =  3.0
     Generated using &quot;atomic&quot; code by A. Dal Corso  v.6.3MaX
     Using radial grid of 1059 points,  4 beta functions with: 
                l(1) =   0
                l(2) =   0
                l(3) =   1
                l(4) =   1
     Q(r) pseudized with 0 coefficients 


     atomic species   valence    mass     pseudopotential
        B              3.00    10.81100     B ( 1.00)

      8 Sym. Ops., with inversion, found



   Cartesian axes

     site n.     atom                  positions (alat units)
         1           B   tau(   1) = (   0.2000000   0.0000000   0.5000000  )
         2           B   tau(   2) = (   0.4000000   0.0000000   0.5000000  )
         3           B   tau(   3) = (   0.6000000   0.0000000   0.5000000  )
         4           B   tau(   4) = (   0.8000000   0.0000000   0.5000000  )
         5           B   tau(   5) = (   0.1000000   0.1750100   0.5000000  )
         6           B   tau(   6) = (   0.3000000   0.1750100   0.5000000  )
         7           B   tau(   7) = (   0.7000000   0.1750100   0.5000000  )
         8           B   tau(   8) = (   0.9000000   0.1750100   0.5000000  )

     number of k points=     9  Marzari-Vanderbilt smearing, width (Ry)=  0.0050
                       cart. coord. in units 2pi/alat
        k(    1) = (   0.0000000   0.0000000   0.0000000), wk =   0.2500000
        k(    2) = (   0.0000000   0.7142449   0.0000000), wk =   0.5000000
        k(    3) = (   0.0000000  -1.4284898   0.0000000), wk =   0.2500000
        k(    4) = (  -0.5000000   0.0000000   0.0000000), wk =   0.1250000
        k(    5) = (  -0.5000000   0.7142449   0.0000000), wk =   0.2500000
        k(    6) = (  -0.5000000  -1.4284898   0.0000000), wk =   0.1250000
        k(    7) = (   0.0000000   0.0000000  -0.5000000), wk =   0.1250000
        k(    8) = (   0.0000000  -0.7142449  -0.5000000), wk =   0.2500000
        k(    9) = (   0.0000000   1.4284898  -0.5000000), wk =   0.1250000

     Dense  grid:    86191 G-vectors     FFT dimensions: (  80,  27,  80)

     Smooth grid:    30459 G-vectors     FFT dimensions: (  60,  20,  60)

     Estimated max dynamical RAM per process >      73.94 MB

     Estimated total dynamical RAM >     147.87 MB

     Check: negative core charge=   -0.000002

     Initial potential from superposition of free atoms

     starting charge   23.99774, renormalised to   24.00000
     Starting wfcs are   32 randomized atomic wfcs

     total cpu time spent up to now is        2.2 secs

     Self-consistent Calculation

     iteration #  1     ecut=    30.00 Ry     beta= 0.70
     Davidson diagonalization with overlap
     ethr =  1.00E-02,  avg # of iterations =  2.0

     negative rho (up, down):  4.668E-07 0.000E+00

     total cpu time spent up to now is        3.2 secs

     total energy              =     -50.08523324 Ry
     estimated scf accuracy    <       0.82861085 Ry

     iteration #  2     ecut=    30.00 Ry     beta= 0.70
     Davidson diagonalization with overlap
     ethr =  3.45E-03,  avg # of iterations =  2.0

     negative rho (up, down):  1.083E-04 0.000E+00

     total cpu time spent up to now is        4.2 secs

     total energy              =     -50.21789843 Ry
     estimated scf accuracy    <       0.03333123 Ry

     iteration #  3     ecut=    30.00 Ry     beta= 0.70
     Davidson diagonalization with overlap
     ethr =  1.39E-04,  avg # of iterations =  2.8

     negative rho (up, down):  4.227E-04 0.000E+00

     total cpu time spent up to now is        5.2 secs

     total energy              =     -50.22271015 Ry
     estimated scf accuracy    <       0.01552294 Ry

     iteration #  4     ecut=    30.00 Ry     beta= 0.70
     Davidson diagonalization with overlap
     ethr =  6.47E-05,  avg # of iterations =  2.0

     negative rho (up, down):  1.577E-04 0.000E+00

     total cpu time spent up to now is        6.1 secs

     total energy              =     -50.22705832 Ry
     estimated scf accuracy    <       0.00190008 Ry

     iteration #  5     ecut=    30.00 Ry     beta= 0.70
     Davidson diagonalization with overlap
     ethr =  7.92E-06,  avg # of iterations =  5.7

     negative rho (up, down):  7.975E-05 0.000E+00

     total cpu time spent up to now is        7.2 secs

     total energy              =     -50.22729194 Ry
     estimated scf accuracy    <       0.00004800 Ry

     iteration #  6     ecut=    30.00 Ry     beta= 0.70
     Davidson diagonalization with overlap
     ethr =  2.00E-07,  avg # of iterations =  4.1

     negative rho (up, down):  7.484E-05 0.000E+00

     total cpu time spent up to now is        8.3 secs

     total energy              =     -50.22730370 Ry
     estimated scf accuracy    <       0.00002930 Ry

     iteration #  7     ecut=    30.00 Ry     beta= 0.70
     Davidson diagonalization with overlap
     ethr =  1.22E-07,  avg # of iterations =  2.1

     negative rho (up, down):  7.566E-05 0.000E+00

     total cpu time spent up to now is        9.2 secs

     total energy              =     -50.22730986 Ry
     estimated scf accuracy    <       0.00000260 Ry

     iteration #  8     ecut=    30.00 Ry     beta= 0.70
     Davidson diagonalization with overlap
     ethr =  1.08E-08,  avg # of iterations =  1.3

     negative rho (up, down):  7.550E-05 0.000E+00

     total cpu time spent up to now is        9.9 secs

     End of self-consistent calculation

          k = 0.0000 0.0000 0.0000 (  3793 PWs)   bands (ev):

   -14.8332 -14.4354 -10.7487  -8.0123  -7.3580  -6.0282  -5.8181  -5.5908
    -4.9134  -2.9788  -1.8731  -0.2537   1.0093   1.9554   1.9903   2.6790

          k = 0.0000 0.7142 0.0000 (  3814 PWs)   bands (ev):

   -14.1329 -13.7603 -10.2364  -9.0185  -8.3046  -6.7393  -6.2229  -4.7878
    -3.8620  -3.6503  -3.1605  -2.0189  -1.0451   2.9348   3.6347   3.8159

          k = 0.0000-1.4285 0.0000 (  3842 PWs)   bands (ev):

   -12.1072 -12.1064 -11.7905 -11.7896  -7.3377  -7.3376  -5.0156  -5.0144
    -4.7998  -4.7997  -1.8554  -1.8551  -0.7441  -0.7440   2.0559   2.0562

          k =-0.5000 0.0000 0.0000 (  3788 PWs)   bands (ev):

   -14.6541 -14.6540  -9.8566  -9.8565  -5.8292  -5.8291  -5.4532  -5.4531
    -4.9095  -4.9086  -0.4106  -0.4104   0.6886   0.6891   2.6311   2.6314

          k =-0.5000 0.7142 0.0000 (  3808 PWs)   bands (ev):

   -13.9640 -13.9639  -9.6227  -9.6227  -7.9364  -7.9360  -4.4192  -4.4190
    -4.3002  -4.2993  -2.9292  -2.9290   0.4076   0.4079   3.8621   3.8622

          k =-0.5000-1.4285 0.0000 (  3812 PWs)   bands (ev):

   -12.0173 -12.0164 -11.8996 -11.8988  -6.8984  -6.8982  -6.1888  -6.1882
    -3.9577  -3.9568  -1.7617  -1.7613  -0.9555  -0.9554   2.5091   2.5095

          k = 0.0000 0.0000-0.5000 (  3788 PWs)   bands (ev):

   -14.8330 -14.4355 -10.7487  -8.0121  -7.3569  -6.0297  -5.8184  -5.5938
    -4.9153  -2.9769  -1.8782  -0.2549   1.0126   1.9578   1.9919   3.2200

          k = 0.0000-0.7142-0.5000 (  3808 PWs)   bands (ev):

   -14.1330 -13.7602 -10.2361  -9.0182  -8.3038  -6.7398  -6.2227  -4.7902
    -3.8637  -3.6498  -3.1604  -2.0187  -1.0496   2.9321   3.6291   3.7715

          k = 0.0000 1.4285-0.5000 (  3812 PWs)   bands (ev):

   -12.1070 -12.1062 -11.7904 -11.7895  -7.3376  -7.3375  -5.0148  -5.0136
    -4.7991  -4.7990  -1.8572  -1.8569  -0.7439  -0.7438   2.0531   2.0534

     the Fermi energy is    -1.0080 ev

!    total energy              =     -50.22730992 Ry
     estimated scf accuracy    <       0.00000031 Ry
     smearing contrib. (-TS)   =      -0.00028742 Ry
     internal energy E=F+TS    =     -50.22702250 Ry

     The total energy is F=E-TS. E is the sum of the following terms:
     one-electron contribution =    -118.87869097 Ry
     hartree contribution      =      64.82899971 Ry
     xc contribution           =     -23.27784533 Ry
     ewald contribution        =      27.10051409 Ry

     convergence has been achieved in   8 iterations

     negative rho (up, down):  7.550E-05 0.000E+00

     Forces acting on atoms (cartesian axes, Ry/au):

     atom    1 type  1   force =     0.03646642    0.00000000    0.00000000
     atom    2 type  1   force =     0.08832082    0.00000000    0.00000000
     atom    3 type  1   force =    -0.08832082    0.00000000    0.00000000
     atom    4 type  1   force =    -0.03646642    0.00000000    0.00000000
     atom    5 type  1   force =    -0.08820317    0.00000000    0.00000000
     atom    6 type  1   force =    -0.03646395   -0.00000000    0.00000000
     atom    7 type  1   force =     0.03646395    0.00000000    0.00000000
     atom    8 type  1   force =     0.08820317    0.00000000    0.00000000

     Total force =     0.000000     Total SCF correction =     0.000000


     Computing stress (Cartesian axis) and pressure


     negative rho (up, down):  7.550E-05 0.000E+00
          total   stress  (Ry/bohr**3)                   (kbar)     P=       -3.29
  -0.00000918   0.00000000   0.00000000           -1.35        0.00        0.00
   0.00000000  -0.00000861   0.00000000            0.00       -1.27        0.00
   0.00000000   0.00000000  -0.00004933            0.00        0.00       -7.26


     BFGS Geometry Optimization
     Energy error            =      0.0E+00
     Gradient error          =      0.0E+00
     Cell gradient error     =      9.2E-06


     number of scf cycles    =   1
     number of bfgs steps    =   0

     enthalpy new            =     -50.2273099184 Ry

     new trust radius        =       0.0017007663 bohr
     new conv_thr            =       0.0000010000 Ry

     new unit-cell volume =   1371.02714 a.u.^3 (   203.16526 Ang^3 )
     density =      0.70690 g/cm^3

CELL_PARAMETERS (alat= 15.76578000)
   0.999770388   0.000000000   0.000000000
   0.000000000   0.349944681   0.000000000
   0.000000000   0.000000000   1.000000000

ATOMIC_POSITIONS (crystal)
B             0.2000000000        0.0000000000        0.5000000000    0   0   0
B             0.4000000000        0.0000000000        0.5000000000    0   0   0
B             0.6000000000        0.0000000000        0.5000000000    0   0   0
B             0.8000000000        0.0000000000        0.5000000000    0   0   0
B             0.1000000000        0.5000000000        0.5000000000    0   0   0
B             0.3000000000        0.5000000000        0.5000000000    0   0   0
B             0.7000000000        0.5000000000        0.5000000000    0   0   0
B             0.9000000000        0.5000000000        0.5000000000    0   0   0



     Writing output data file ./x3_11.save/
     NEW-OLD atomic charge density approx. for the potential

     Check: negative core charge=   -0.000002

     negative rho (up, down):  7.559E-05 0.000E+00
     extrapolated charge   23.98932, renormalised to   24.00000

     total cpu time spent up to now is       15.8 secs

     Self-consistent Calculation

     iteration #  1     ecut=    30.00 Ry     beta= 0.70
     Davidson diagonalization with overlap
     ethr =  1.00E-06,  avg # of iterations =  2.0

     Threshold (ethr) on eigenvalues was too large:
     Diagonalizing with lowered threshold

     Davidson diagonalization with overlap
     ethr =  2.52E-08,  avg # of iterations =  1.6

     negative rho (up, down):  7.593E-05 0.000E+00

     total cpu time spent up to now is       17.4 secs

     total energy              =     -50.22730423 Ry
     estimated scf accuracy    <       0.00000660 Ry

     iteration #  2     ecut=    30.00 Ry     beta= 0.70
     Davidson diagonalization with overlap
     ethr =  2.75E-08,  avg # of iterations =  3.0

     negative rho (up, down):  7.507E-05 0.000E+00

     total cpu time spent up to now is       18.5 secs

     total energy              =     -50.22731287 Ry
     estimated scf accuracy    <       0.00001225 Ry

     iteration #  3     ecut=    30.00 Ry     beta= 0.70
     Davidson diagonalization with overlap
     ethr =  2.75E-08,  avg # of iterations =  2.2

     negative rho (up, down):  7.473E-05 0.000E+00

     total cpu time spent up to now is       19.4 secs

     total energy              =     -50.22731420 Ry
     estimated scf accuracy    <       0.00000234 Ry

     iteration #  4     ecut=    30.00 Ry     beta= 0.70
     Davidson diagonalization with overlap
     ethr =  9.74E-09,  avg # of iterations =  1.3

     negative rho (up, down):  7.384E-05 0.000E+00

     total cpu time spent up to now is       20.1 secs

     End of self-consistent calculation

          k = 0.0000 0.0000 0.0000 (  3793 PWs)   bands (ev):

   -14.8320 -14.4339 -10.7466  -8.0086  -7.3554  -6.0250  -5.8173  -5.5873
    -4.9120  -2.9745  -1.8708  -0.2481   1.0161   1.9625   1.9951   2.6802

          k = 0.0000 0.7144 0.0000 (  3814 PWs)   bands (ev):

   -14.1315 -13.7587 -10.2340  -9.0158  -8.3020  -6.7365  -6.2185  -4.7865
    -3.8601  -3.6456  -3.1560  -2.0135  -1.0424   2.9402   3.6402   3.8215

          k = 0.0000-1.4288 0.0000 (  3842 PWs)   bands (ev):

   -12.1054 -12.1043 -11.7886 -11.7875  -7.3346  -7.3346  -5.0120  -5.0107
    -4.7950  -4.7949  -1.8528  -1.8524  -0.7406  -0.7405   2.0605   2.0609

          k =-0.5001 0.0000 0.0000 (  3788 PWs)   bands (ev):

   -14.6528 -14.6526  -9.8542  -9.8540  -5.8259  -5.8258  -5.4522  -5.4520
    -4.9057  -4.9047  -0.4075  -0.4072   0.6948   0.6953   2.6378   2.6381

          k =-0.5001 0.7144 0.0000 (  3808 PWs)   bands (ev):

   -13.9625 -13.9623  -9.6201  -9.6201  -7.9337  -7.9332  -4.4177  -4.4175
    -4.2958  -4.2949  -2.9243  -2.9241   0.4112   0.4115   3.8680   3.8682

          k =-0.5001-1.4288 0.0000 (  3812 PWs)   bands (ev):

   -12.0154 -12.0143 -11.8977 -11.8968  -6.8957  -6.8956  -6.1843  -6.1837
    -3.9533  -3.9526  -1.7590  -1.7585  -0.9522  -0.9522   2.5144   2.5148

          k = 0.0000 0.0000-0.5000 (  3788 PWs)   bands (ev):

   -14.8318 -14.4340 -10.7466  -8.0084  -7.3543  -6.0265  -5.8176  -5.5903
    -4.9139  -2.9726  -1.8760  -0.2493   1.0194   1.9650   1.9968   3.2223

          k = 0.0000-0.7144-0.5000 (  3808 PWs)   bands (ev):

   -14.1316 -13.7586 -10.2338  -9.0156  -8.3011  -6.7371  -6.2183  -4.7889
    -3.8618  -3.6451  -3.1558  -2.0133  -1.0469   2.9375   3.6347   3.7768

          k = 0.0000 1.4288-0.5000 (  3812 PWs)   bands (ev):

   -12.1052 -12.1042 -11.7885 -11.7874  -7.3345  -7.3344  -5.0112  -5.0099
    -4.7944  -4.7942  -1.8546  -1.8541  -0.7405  -0.7404   2.0578   2.0581

     the Fermi energy is    -1.0053 ev

!    total energy              =     -50.22731392 Ry
     estimated scf accuracy    <       0.00000073 Ry
     smearing contrib. (-TS)   =      -0.00028502 Ry
     internal energy E=F+TS    =     -50.22702890 Ry

     The total energy is F=E-TS. E is the sum of the following terms:
     one-electron contribution =    -118.93542804 Ry
     hartree contribution      =      64.85824921 Ry
     xc contribution           =     -23.28069495 Ry
     ewald contribution        =      27.13084488 Ry

     convergence has been achieved in   4 iterations

     negative rho (up, down):  7.384E-05 0.000E+00

     Forces acting on atoms (cartesian axes, Ry/au):

     atom    1 type  1   force =     0.03629231    0.00000000    0.00000000
     atom    2 type  1   force =     0.08854806    0.00000000    0.00000000
     atom    3 type  1   force =    -0.08854806   -0.00000000    0.00000000
     atom    4 type  1   force =    -0.03629231    0.00000000    0.00000000
     atom    5 type  1   force =    -0.08847394    0.00000000    0.00000000
     atom    6 type  1   force =    -0.03633935    0.00000000    0.00000000
     atom    7 type  1   force =     0.03633935   -0.00000000    0.00000000
     atom    8 type  1   force =     0.08847394   -0.00000000    0.00000000

     Total force =     0.000000     Total SCF correction =     0.000000


     Computing stress (Cartesian axis) and pressure


     negative rho (up, down):  7.384E-05 0.000E+00
          total   stress  (Ry/bohr**3)                   (kbar)     P=       -2.91
  -0.00000459   0.00000000   0.00000000           -0.68        0.00        0.00
   0.00000000  -0.00000359   0.00000000            0.00       -0.53        0.00
   0.00000000   0.00000000  -0.00005112            0.00        0.00       -7.52

     Energy error            =      4.0E-06
     Gradient error          =      0.0E+00
     Cell gradient error     =      4.6E-06


     number of scf cycles    =   2
     number of bfgs steps    =   1

     enthalpy old            =     -50.2273099184 Ry
     enthalpy new            =     -50.2273139192 Ry

     CASE: enthalpy_new < enthalpy_old

     new trust radius        =       0.0015881026 bohr
     new conv_thr            =       0.0000000100 Ry

     new unit-cell volume =   1370.50311 a.u.^3 (   203.08761 Ang^3 )
     density =      0.70717 g/cm^3

CELL_PARAMETERS (alat= 15.76578000)
   0.999555987   0.000000000   0.000000000
   0.000000000   0.349885958   0.000000000
   0.000000000   0.000000000   1.000000000

ATOMIC_POSITIONS (crystal)
B             0.2000000000        0.0000000000        0.5000000000    0   0   0
B             0.4000000000        0.0000000000        0.5000000000    0   0   0
B             0.6000000000        0.0000000000        0.5000000000    0   0   0
B             0.8000000000        0.0000000000        0.5000000000    0   0   0
B             0.1000000000        0.5000000000        0.5000000000    0   0   0
B             0.3000000000        0.5000000000        0.5000000000    0   0   0
B             0.7000000000        0.5000000000        0.5000000000    0   0   0
B             0.9000000000        0.5000000000        0.5000000000    0   0   0



     Writing output data file ./x3_11.save/
     NEW-OLD atomic charge density approx. for the potential

     Check: negative core charge=   -0.000002

     negative rho (up, down):  7.392E-05 0.000E+00
     extrapolated charge   23.99082, renormalised to   24.00000

     total cpu time spent up to now is       26.0 secs

     Self-consistent Calculation

     iteration #  1     ecut=    30.00 Ry     beta= 0.70
     Davidson diagonalization with overlap
     ethr =  1.00E-06,  avg # of iterations =  2.0

     Threshold (ethr) on eigenvalues was too large:
     Diagonalizing with lowered threshold

     Davidson diagonalization with overlap
     ethr =  2.81E-08,  avg # of iterations =  1.6

     negative rho (up, down):  7.434E-05 0.000E+00

     total cpu time spent up to now is       27.7 secs

     total energy              =     -50.22730661 Ry
     estimated scf accuracy    <       0.00000728 Ry

     iteration #  2     ecut=    30.00 Ry     beta= 0.70
     Davidson diagonalization with overlap
     ethr =  3.03E-08,  avg # of iterations =  3.0

     negative rho (up, down):  7.356E-05 0.000E+00

     total cpu time spent up to now is       28.7 secs

     total energy              =     -50.22731390 Ry
     estimated scf accuracy    <       0.00001256 Ry

     iteration #  3     ecut=    30.00 Ry     beta= 0.70
     Davidson diagonalization with overlap
     ethr =  3.03E-08,  avg # of iterations =  2.1

     negative rho (up, down):  7.327E-05 0.000E+00

     total cpu time spent up to now is       29.6 secs

     total energy              =     -50.22731541 Ry
     estimated scf accuracy    <       0.00000201 Ry

     iteration #  4     ecut=    30.00 Ry     beta= 0.70
     Davidson diagonalization with overlap
     ethr =  8.39E-09,  avg # of iterations =  1.3

     negative rho (up, down):  7.312E-05 0.000E+00

     total cpu time spent up to now is       30.4 secs

     total energy              =     -50.22731554 Ry
     estimated scf accuracy    <       0.00000052 Ry

     iteration #  5     ecut=    30.00 Ry     beta= 0.70
     Davidson diagonalization with overlap
     ethr =  2.17E-09,  avg # of iterations =  1.0

     negative rho (up, down):  7.285E-05 0.000E+00

     total cpu time spent up to now is       31.1 secs

     total energy              =     -50.22731543 Ry
     estimated scf accuracy    <       0.00000029 Ry

     iteration #  6     ecut=    30.00 Ry     beta= 0.70
     Davidson diagonalization with overlap
     ethr =  1.22E-09,  avg # of iterations =  2.0

     negative rho (up, down):  7.269E-05 0.000E+00

     total cpu time spent up to now is       32.0 secs

     total energy              =     -50.22731544 Ry
     estimated scf accuracy    <       0.00000003 Ry

     iteration #  7     ecut=    30.00 Ry     beta= 0.70
     Davidson diagonalization with overlap
     ethr =  1.33E-10,  avg # of iterations =  2.0

     negative rho (up, down):  7.274E-05 0.000E+00

     total cpu time spent up to now is       33.0 secs

     End of self-consistent calculation

          k = 0.0000 0.0000 0.0000 (  3793 PWs)   bands (ev):

   -14.8377 -14.4396 -10.7510  -8.0120  -7.3596  -6.0300  -5.8214  -5.5921
    -4.9157  -2.9778  -1.8732  -0.2505   1.0154   1.9614   1.9948   2.6811

          k = 0.0000 0.7145 0.0000 (  3814 PWs)   bands (ev):

   -14.1371 -13.7643 -10.2385  -9.0209  -8.3069  -6.7407  -6.2214  -4.7903
    -3.8634  -3.6484  -3.1591  -2.0158  -1.0444   2.9402   3.6397   3.8217

          k = 0.0000-1.4290 0.0000 (  3842 PWs)   bands (ev):

   -12.1107 -12.1100 -11.7939 -11.7932  -7.3386  -7.3383  -5.0152  -5.0146
    -4.7978  -4.7973  -1.8553  -1.8552  -0.7428  -0.7427   2.0599   2.0601

          k =-0.5002 0.0000 0.0000 (  3788 PWs)   bands (ev):

   -14.6584 -14.6584  -9.8584  -9.8582  -5.8308  -5.8308  -5.4561  -5.4561
    -4.9089  -4.9083  -0.4090  -0.4089   0.6928   0.6935   2.6376   2.6377

          k =-0.5002 0.7145 0.0000 (  3808 PWs)   bands (ev):

   -13.9681 -13.9680  -9.6249  -9.6247  -7.9381  -7.9380  -4.4212  -4.4212
    -4.2986  -4.2980  -2.9270  -2.9267   0.4100   0.4101   3.8678   3.8678

          k =-0.5002-1.4290 0.0000 (  3812 PWs)   bands (ev):

   -12.0206 -12.0199 -11.9032 -11.9024  -6.9002  -6.8997  -6.1867  -6.1866
    -3.9564  -3.9557  -1.7614  -1.7613  -0.9545  -0.9544   2.5140   2.5143

          k = 0.0000 0.0000-0.5000 (  3788 PWs)   bands (ev):

   -14.8375 -14.4396 -10.7511  -8.0118  -7.3585  -6.0316  -5.8217  -5.5951
    -4.9176  -2.9759  -1.8783  -0.2517   1.0187   1.9639   1.9964   3.2230

          k = 0.0000-0.7145-0.5000 (  3808 PWs)   bands (ev):

   -14.1373 -13.7642 -10.2383  -9.0206  -8.3061  -6.7412  -6.2212  -4.7926
    -3.8651  -3.6479  -3.1589  -2.0156  -1.0489   2.9375   3.6342   3.7771

          k = 0.0000 1.4290-0.5000 (  3812 PWs)   bands (ev):

   -12.1105 -12.1098 -11.7938 -11.7931  -7.3385  -7.3382  -5.0144  -5.0138
    -4.7971  -4.7967  -1.8571  -1.8570  -0.7427  -0.7425   2.0571   2.0573

     the Fermi energy is    -1.0073 ev

!    total energy              =     -50.22731545 Ry
     estimated scf accuracy    <          2.6E-09 Ry
     smearing contrib. (-TS)   =      -0.00028620 Ry
     internal energy E=F+TS    =     -50.22702924 Ry

     The total energy is F=E-TS. E is the sum of the following terms:
     one-electron contribution =    -118.98906595 Ry
     hartree contribution      =      64.88913401 Ry
     xc contribution           =     -23.28397974 Ry
     ewald contribution        =      27.15688243 Ry

     convergence has been achieved in   7 iterations

     negative rho (up, down):  7.274E-05 0.000E+00

     Forces acting on atoms (cartesian axes, Ry/au):

     atom    1 type  1   force =     0.03626022    0.00000000    0.00000000
     atom    2 type  1   force =     0.08862778    0.00000000    0.00000000
     atom    3 type  1   force =    -0.08862778    0.00000000    0.00000000
     atom    4 type  1   force =    -0.03626022    0.00000000    0.00000000
     atom    5 type  1   force =    -0.08855446    0.00000000    0.00000000
     atom    6 type  1   force =    -0.03633753    0.00000000    0.00000000
     atom    7 type  1   force =     0.03633753    0.00000000    0.00000000
     atom    8 type  1   force =     0.08855446    0.00000000    0.00000000

     Total force =     0.000000     Total SCF correction =     0.000000


     Computing stress (Cartesian axis) and pressure


     negative rho (up, down):  7.274E-05 0.000E+00
          total   stress  (Ry/bohr**3)                   (kbar)     P=       -2.41
  -0.00000068   0.00000000   0.00000000           -0.10        0.00        0.00
   0.00000000  -0.00000038   0.00000000            0.00       -0.06        0.00
   0.00000000   0.00000000  -0.00004805            0.00        0.00       -7.07

     Energy error            =      1.5E-06
     Gradient error          =      0.0E+00
     Cell gradient error     =      6.8E-07


     bfgs converged in   3 scf cycles and   2 bfgs steps
     (criteria: energy <  1.0E-04 Ry, force <  1.0E-03Ry/Bohr, cell <  5.0E-01kbar)

     End of BFGS Geometry Optimization

     Final enthalpy =     -50.2273154455 Ry

     File ./x3_11.bfgs deleted, as requested
Begin final coordinates
     new unit-cell volume =   1370.50311 a.u.^3 (   203.08761 Ang^3 )
     density =      0.70717 g/cm^3

CELL_PARAMETERS (alat= 15.76578000)
   0.999555987   0.000000000   0.000000000
   0.000000000   0.349885958   0.000000000
   0.000000000   0.000000000   1.000000000

ATOMIC_POSITIONS (crystal)
B             0.2000000000        0.0000000000        0.5000000000    0   0   0
B             0.4000000000        0.0000000000        0.5000000000    0   0   0
B             0.6000000000        0.0000000000        0.5000000000    0   0   0
B             0.8000000000        0.0000000000        0.5000000000    0   0   0
B             0.1000000000        0.5000000000        0.5000000000    0   0   0
B             0.3000000000        0.5000000000        0.5000000000    0   0   0
B             0.7000000000        0.5000000000        0.5000000000    0   0   0
B             0.9000000000        0.5000000000        0.5000000000    0   0   0
End final coordinates



     Writing output data file ./x3_11.save/

     Final scf calculation at the relaxed structure.
     The G-vectors are recalculated for the final unit cell
     Results may differ from those at the preceding step.

     Parallelization info
     --------------------
     sticks:   dense  smooth     PW     G-vecs:    dense   smooth      PW
     Min         831     414    130                43081    15220    2602
     Max         832     415    131                43086    15223    2605
     Sum        1663     829    261                86167    30443    5207



     bravais-lattice index     =            8
     lattice parameter (alat)  =      15.7658  a.u.
     unit-cell volume          =    1370.5031 (a.u.)^3
     number of atoms/cell      =            8
     number of atomic types    =            1
     number of electrons       =        24.00
     number of Kohn-Sham states=           16
     kinetic-energy cutoff     =      30.0000  Ry
     charge density cutoff     =     240.0000  Ry
     scf convergence threshold =      1.0E-08
     mixing beta               =       0.7000
     number of iterations used =            8  plain     mixing
     press convergence thresh. =      5.0E-01
     Exchange-correlation= PBE
                           (   1   4   3   4   0   0   0)

     celldm(1)=  15.765780  celldm(2)=   0.350020  celldm(3)=   1.000000
     celldm(4)=   0.000000  celldm(5)=   0.000000  celldm(6)=   0.000000

     crystal axes: (cart. coord. in units of alat)
               a(1) = (   0.999556   0.000000   0.000000 )  
               a(2) = (   0.000000   0.349886   0.000000 )  
               a(3) = (   0.000000   0.000000   1.000000 )  

     reciprocal axes: (cart. coord. in units 2 pi/alat)
               b(1) = (  1.000444  0.000000  0.000000 )  
               b(2) = (  0.000000  2.858074  0.000000 )  
               b(3) = (  0.000000  0.000000  1.000000 )  


     PseudoPot. # 1 for B  read from file:
     ./B.pbe-n-rrkjus_psl.1.0.0.UPF
     MD5 check sum: 21bc42b8719306ef1fe0545c7dabf1c6
     Pseudo is Ultrasoft + core correction, Zval =  3.0
     Generated using &quot;atomic&quot; code by A. Dal Corso  v.6.3MaX
     Using radial grid of 1059 points,  4 beta functions with: 
                l(1) =   0
                l(2) =   0
                l(3) =   1
                l(4) =   1
     Q(r) pseudized with 0 coefficients 


     atomic species   valence    mass     pseudopotential
        B              3.00    10.81100     B ( 1.00)

      8 Sym. Ops., with inversion, found



   Cartesian axes

     site n.     atom                  positions (alat units)
         1           B   tau(   1) = (   0.1999112   0.0000000   0.5000000  )
         2           B   tau(   2) = (   0.3998224   0.0000000   0.5000000  )
         3           B   tau(   3) = (   0.5997336   0.0000000   0.5000000  )
         4           B   tau(   4) = (   0.7996448   0.0000000   0.5000000  )
         5           B   tau(   5) = (   0.0999556   0.1749430   0.5000000  )
         6           B   tau(   6) = (   0.2998668   0.1749430   0.5000000  )
         7           B   tau(   7) = (   0.6996892   0.1749430   0.5000000  )
         8           B   tau(   8) = (   0.8996004   0.1749430   0.5000000  )

     number of k points=     9  Marzari-Vanderbilt smearing, width (Ry)=  0.0050
                       cart. coord. in units 2pi/alat
        k(    1) = (   0.0000000   0.0000000   0.0000000), wk =   0.2500000
        k(    2) = (   0.0000000   0.7145185   0.0000000), wk =   0.5000000
        k(    3) = (   0.0000000  -1.4290371   0.0000000), wk =   0.2500000
        k(    4) = (  -0.5002221   0.0000000   0.0000000), wk =   0.1250000
        k(    5) = (  -0.5002221   0.7145185   0.0000000), wk =   0.2500000
        k(    6) = (  -0.5002221  -1.4290371   0.0000000), wk =   0.1250000
        k(    7) = (   0.0000000   0.0000000  -0.5000000), wk =   0.1250000
        k(    8) = (   0.0000000  -0.7145185  -0.5000000), wk =   0.2500000
        k(    9) = (   0.0000000   1.4290371  -0.5000000), wk =   0.1250000

     Dense  grid:    86167 G-vectors     FFT dimensions: (  80,  27,  80)

     Smooth grid:    30443 G-vectors     FFT dimensions: (  60,  20,  60)

     Estimated max dynamical RAM per process >      74.24 MB

     Estimated total dynamical RAM >     148.48 MB

     Check: negative core charge=   -0.000002

     Initial potential from superposition of free atoms

     starting charge   23.99774, renormalised to   24.00000
     Starting wfcs are   32 randomized atomic wfcs

     total cpu time spent up to now is       39.7 secs

     Self-consistent Calculation

     iteration #  1     ecut=    30.00 Ry     beta= 0.70
     Davidson diagonalization with overlap
     c_bands:  1 eigenvalues not converged
     c_bands:  1 eigenvalues not converged
     ethr =  1.00E-06,  avg # of iterations = 13.3

     negative rho (up, down):  6.911E-07 0.000E+00

     total cpu time spent up to now is       42.7 secs

     total energy              =     -50.05510856 Ry
     estimated scf accuracy    <       0.88190025 Ry

     iteration #  2     ecut=    30.00 Ry     beta= 0.70
     Davidson diagonalization with overlap
     ethr =  3.67E-03,  avg # of iterations =  2.0

     negative rho (up, down):  1.678E-04 0.000E+00

     total cpu time spent up to now is       43.7 secs

     total energy              =     -50.21599732 Ry
     estimated scf accuracy    <       0.04264592 Ry

     iteration #  3     ecut=    30.00 Ry     beta= 0.70
     Davidson diagonalization with overlap
     ethr =  1.78E-04,  avg # of iterations =  2.0

     negative rho (up, down):  4.837E-04 0.000E+00

     total cpu time spent up to now is       44.6 secs

     total energy              =     -50.22247250 Ry
     estimated scf accuracy    <       0.01592885 Ry

     iteration #  4     ecut=    30.00 Ry     beta= 0.70
     Davidson diagonalization with overlap
     ethr =  6.64E-05,  avg # of iterations =  2.3

     negative rho (up, down):  1.298E-04 0.000E+00

     total cpu time spent up to now is       45.5 secs

     total energy              =     -50.22698684 Ry
     estimated scf accuracy    <       0.00197046 Ry

     iteration #  5     ecut=    30.00 Ry     beta= 0.70
     Davidson diagonalization with overlap
     ethr =  8.21E-06,  avg # of iterations =  2.4

     negative rho (up, down):  8.066E-05 0.000E+00

     total cpu time spent up to now is       46.4 secs

     total energy              =     -50.22719097 Ry
     estimated scf accuracy    <       0.00006306 Ry

     iteration #  6     ecut=    30.00 Ry     beta= 0.70
     Davidson diagonalization with overlap
     ethr =  2.63E-07,  avg # of iterations =  4.8

     negative rho (up, down):  7.739E-05 0.000E+00

     total cpu time spent up to now is       47.5 secs

     total energy              =     -50.22721557 Ry
     estimated scf accuracy    <       0.00000519 Ry

     iteration #  7     ecut=    30.00 Ry     beta= 0.70
     Davidson diagonalization with overlap
     ethr =  2.16E-08,  avg # of iterations =  2.0

     negative rho (up, down):  7.671E-05 0.000E+00

     total cpu time spent up to now is       48.3 secs

     total energy              =     -50.22721580 Ry
     estimated scf accuracy    <       0.00000206 Ry

     iteration #  8     ecut=    30.00 Ry     beta= 0.70
     Davidson diagonalization with overlap
     ethr =  8.57E-09,  avg # of iterations =  1.0

     negative rho (up, down):  7.652E-05 0.000E+00

     total cpu time spent up to now is       49.1 secs

     total energy              =     -50.22721556 Ry
     estimated scf accuracy    <       0.00000083 Ry

     iteration #  9     ecut=    30.00 Ry     beta= 0.70
     Davidson diagonalization with overlap
     ethr =  3.48E-09,  avg # of iterations =  2.0

     negative rho (up, down):  7.653E-05 0.000E+00

     total cpu time spent up to now is       50.0 secs

     total energy              =     -50.22721571 Ry
     estimated scf accuracy    <       0.00000002 Ry

     iteration # 10     ecut=    30.00 Ry     beta= 0.70
     Davidson diagonalization with overlap
     ethr =  9.42E-11,  avg # of iterations =  3.1

     negative rho (up, down):  7.657E-05 0.000E+00

     total cpu time spent up to now is       51.0 secs

     End of self-consistent calculation

          k = 0.0000 0.0000 0.0000 (  3793 PWs)   bands (ev):

   -14.8375 -14.4393 -10.7509  -8.0118  -7.3596  -6.0298  -5.8213  -5.5918
    -4.9155  -2.9777  -1.8731  -0.2504   1.0156   1.9616   1.9949   4.0290

          k = 0.0000 0.7145 0.0000 (  3806 PWs)   bands (ev):

   -14.1369 -13.7640 -10.2383  -9.0206  -8.3061  -6.7407  -6.2212  -4.7902
    -3.8632  -3.6483  -3.1586  -2.0148  -1.0443   2.9403   3.6403   4.2346

          k = 0.0000-1.4290 0.0000 (  3842 PWs)   bands (ev):

   -12.1105 -12.1097 -11.7937 -11.7929  -7.3385  -7.3382  -5.0152  -5.0145
    -4.7975  -4.7972  -1.8552  -1.8551  -0.7426  -0.7425   2.0599   2.0602

          k =-0.5002 0.0000 0.0000 (  3780 PWs)   bands (ev):

   -14.6581 -14.6581  -9.8582  -9.8581  -5.8301  -5.8301  -5.4559  -5.4559
    -4.9088  -4.9081  -0.4089  -0.4088   0.6942   0.6948   2.6381   2.6381

          k =-0.5002 0.7145 0.0000 (  3808 PWs)   bands (ev):

   -13.9678 -13.9678  -9.6247  -9.6245  -7.9380  -7.9378  -4.4210  -4.4210
    -4.2985  -4.2979  -2.9268  -2.9265   0.4100   0.4101   3.8680   3.8680

          k =-0.5002-1.4290 0.0000 (  3812 PWs)   bands (ev):

   -12.0204 -12.0196 -11.9029 -11.9021  -6.9000  -6.8996  -6.1867  -6.1865
    -3.9563  -3.9555  -1.7613  -1.7612  -0.9543  -0.9543   2.5141   2.5144

          k = 0.0000 0.0000-0.5000 (  3780 PWs)   bands (ev):

   -14.8373 -14.4394 -10.7510  -8.0116  -7.3585  -6.0313  -5.8215  -5.5933
    -4.9174  -2.9758  -1.8782  -0.2507   1.0190   1.9640   1.9965   4.0290

          k = 0.0000-0.7145-0.5000 (  3808 PWs)   bands (ev):

   -14.1370 -13.7640 -10.2382  -9.0204  -8.3059  -6.7412  -6.2210  -4.7925
    -3.8649  -3.6478  -3.1589  -2.0154  -1.0489   2.9376   3.6343   3.7771

          k = 0.0000 1.4290-0.5000 (  3812 PWs)   bands (ev):

   -12.1103 -12.1096 -11.7936 -11.7928  -7.3383  -7.3381  -5.0144  -5.0137
    -4.7969  -4.7965  -1.8570  -1.8568  -0.7425  -0.7424   2.0572   2.0574

     the Fermi energy is    -1.0072 ev

!    total energy              =     -50.22721572 Ry
     estimated scf accuracy    <          6.2E-09 Ry
     smearing contrib. (-TS)   =      -0.00028572 Ry
     internal energy E=F+TS    =     -50.22693000 Ry

     The total energy is F=E-TS. E is the sum of the following terms:
     one-electron contribution =    -118.98862961 Ry
     hartree contribution      =      64.88886503 Ry
     xc contribution           =     -23.28404784 Ry
     ewald contribution        =      27.15688243 Ry

     convergence has been achieved in  10 iterations

     negative rho (up, down):  7.657E-05 0.000E+00

     Forces acting on atoms (cartesian axes, Ry/au):

     atom    1 type  1   force =     0.03625554    0.00000000    0.00000000
     atom    2 type  1   force =     0.08864115    0.00000000    0.00000000
     atom    3 type  1   force =    -0.08864115   -0.00000000    0.00000000
     atom    4 type  1   force =    -0.03625554    0.00000000    0.00000000
     atom    5 type  1   force =    -0.08856203    0.00000000    0.00000000
     atom    6 type  1   force =    -0.03632665    0.00000000    0.00000000
     atom    7 type  1   force =     0.03632665   -0.00000000    0.00000000
     atom    8 type  1   force =     0.08856203    0.00000000    0.00000000

     Total force =     0.000000     Total SCF correction =     0.000000


     Computing stress (Cartesian axis) and pressure


     negative rho (up, down):  7.657E-05 0.000E+00
          total   stress  (Ry/bohr**3)                   (kbar)     P=       -2.45
  -0.00000079   0.00000000   0.00000000           -0.12        0.00        0.00
   0.00000000  -0.00000083   0.00000000            0.00       -0.12        0.00
   0.00000000   0.00000000  -0.00004833            0.00        0.00       -7.11


     Writing output data file ./x3_11.save/

     init_run     :      4.23s CPU      4.30s WALL (       2 calls)
     electrons    :     30.16s CPU     30.43s WALL (       4 calls)
     update_pot   :      3.57s CPU      3.57s WALL (       2 calls)
     forces       :      5.26s CPU      5.27s WALL (       4 calls)
     stress       :     11.13s CPU     11.16s WALL (       4 calls)

     Called by init_run:
     wfcinit      :      1.07s CPU      1.08s WALL (       2 calls)
     potinit      :      1.27s CPU      1.29s WALL (       2 calls)
     hinit0       :      1.68s CPU      1.70s WALL (       2 calls)

     Called by electrons:
     c_bands      :     22.00s CPU     22.20s WALL (      31 calls)
     sum_band     :      4.58s CPU      4.62s WALL (      31 calls)
     v_of_rho     :      1.71s CPU      1.73s WALL (      33 calls)
     newd         :      2.03s CPU      2.06s WALL (      33 calls)
     mix_rho      :      0.16s CPU      0.16s WALL (      31 calls)

     Called by c_bands:
     init_us_2    :      0.36s CPU      0.36s WALL (     648 calls)
     cegterg      :     21.32s CPU     21.52s WALL (     279 calls)

     Called by *egterg:
     cdiaghg      :      0.30s CPU      0.30s WALL (     982 calls)
     h_psi        :     14.20s CPU     14.37s WALL (    1036 calls)
     s_psi        :      2.69s CPU      2.70s WALL (    1036 calls)
     g_psi        :      0.06s CPU      0.06s WALL (     739 calls)

     Called by h_psi:
     h_psi:calbec :      2.97s CPU      3.00s WALL (    1036 calls)
     vloc_psi     :      8.49s CPU      8.62s WALL (    1036 calls)
     add_vuspsi   :      2.68s CPU      2.70s WALL (    1036 calls)

     General routines
     calbec       :      4.75s CPU      4.80s WALL (    1495 calls)
     fft          :      1.20s CPU      1.22s WALL (     525 calls)
     ffts         :      0.04s CPU      0.04s WALL (      64 calls)
     fftw         :      8.78s CPU      8.91s WALL (   29294 calls)
     interpolate  :      0.11s CPU      0.11s WALL (      33 calls)

     Parallel routines
     fft_scatt_xy :      1.51s CPU      1.53s WALL (   29883 calls)
     fft_scatt_yz :      1.93s CPU      1.96s WALL (   29883 calls)

     PWSCF        :     54.61s CPU     55.01s WALL


   This run was terminated on:  14:34:42  30Oct2021            

=------------------------------------------------------------------------------=
   JOB DONE.
=------------------------------------------------------------------------------=
