
     Program PWSCF v.6.7MaX starts on 30Oct2021 at 15: 6:45 

     This program is part of the open-source Quantum ESPRESSO suite
     for quantum simulation of materials; please cite
         "P. Giannozzi et al., J. Phys.:Condens. Matter 21 395502 (2009);
         "P. Giannozzi et al., J. Phys.:Condens. Matter 29 465901 (2017);
          URL http://www.quantum-espresso.org", 
     in publications or presentations arising from this work. More details at
     http://www.quantum-espresso.org/quote

     Parallel version (MPI), running on     2 processors

     MPI processes distributed on     1 nodes
     R & G space division:  proc/nbgrp/npool/nimage =       2
     Waiting for input...
     Reading input from standard input

     Current dimensions of program PWSCF are:
     Max number of different atomic species (ntypx) = 10
     Max number of k-points (npk) =  40000
     Max angular momentum in pseudopotentials (lmaxx) =  3
     file B.pbe-n-rrkjus_psl.1.0.0.UPF: wavefunction(s)  2S renormalized

     Subspace diagonalization in iterative solution of the eigenvalue problem:
     a serial algorithm will be used

     Found symmetry operation: I + (  0.2500  0.1250  0.0000)
     This is a supercell, fractional translations are disabled

     Parallelization info
     --------------------
     sticks:   dense  smooth     PW     G-vecs:    dense   smooth      PW
     Min        6643    3322    883               344485   121869   16727
     Max        6644    3323    884               344486   121870   16728
     Sum       13287    6645   1767               688971   243739   33455



     bravais-lattice index     =            8
     lattice parameter (alat)  =      31.5316  a.u.
     unit-cell volume          =   10973.0992 (a.u.)^3
     number of atoms/cell      =           64
     number of atomic types    =            1
     number of electrons       =       192.00
     number of Kohn-Sham states=          115
     kinetic-energy cutoff     =      30.0000  Ry
     charge density cutoff     =     240.0000  Ry
     scf convergence threshold =      1.0E-06
     mixing beta               =       0.1000
     number of iterations used =            8  plain     mixing
     Exchange-correlation= PBE
                           (   1   4   3   4   0   0   0)

     celldm(1)=  31.531562  celldm(2)=   0.700040  celldm(3)=   0.500000
     celldm(4)=   0.000000  celldm(5)=   0.000000  celldm(6)=   0.000000

     crystal axes: (cart. coord. in units of alat)
               a(1) = (   1.000000   0.000000   0.000000 )  
               a(2) = (   0.000000   0.700040   0.000000 )  
               a(3) = (   0.000000   0.000000   0.500000 )  

     reciprocal axes: (cart. coord. in units 2 pi/alat)
               b(1) = (  1.000000  0.000000  0.000000 )  
               b(2) = (  0.000000  1.428490  0.000000 )  
               b(3) = (  0.000000  0.000000  2.000000 )  


     PseudoPot. # 1 for B  read from file:
     ./B.pbe-n-rrkjus_psl.1.0.0.UPF
     MD5 check sum: 21bc42b8719306ef1fe0545c7dabf1c6
     Pseudo is Ultrasoft + core correction, Zval =  3.0
     Generated using &quot;atomic&quot; code by A. Dal Corso  v.6.3MaX
     Using radial grid of 1059 points,  4 beta functions with: 
                l(1) =   0
                l(2) =   0
                l(3) =   1
                l(4) =   1
     Q(r) pseudized with 0 coefficients 


     atomic species   valence    mass     pseudopotential
        B              3.00    10.81100     B ( 1.00)

      8 Sym. Ops., with inversion, found



   Cartesian axes

     site n.     atom                  positions (alat units)
         1           B   tau(   1) = (   0.6000000   0.5250300   0.2500000  )
         2           B   tau(   2) = (   0.7000000   0.5250300   0.2500000  )
         3           B   tau(   3) = (   0.8000000   0.5250300   0.2500000  )
         4           B   tau(   4) = (   0.9000000   0.5250300   0.2500000  )
         5           B   tau(   5) = (   0.5500000   0.6125350   0.2500000  )
         6           B   tau(   6) = (   0.6500000   0.6125350   0.2500000  )
         7           B   tau(   7) = (   0.8500000   0.6125350   0.2500000  )
         8           B   tau(   8) = (   0.9500000   0.6125350   0.2500000  )
         9           B   tau(   9) = (   0.6000000   0.0000000   0.2500000  )
        10           B   tau(  10) = (   0.7000000   0.0000000   0.2500000  )
        11           B   tau(  11) = (   0.8000000   0.0000000   0.2500000  )
        12           B   tau(  12) = (   0.9000000   0.0000000   0.2500000  )
        13           B   tau(  13) = (   0.5500000   0.0875050   0.2500000  )
        14           B   tau(  14) = (   0.6500000   0.0875050   0.2500000  )
        15           B   tau(  15) = (   0.8500000   0.0875050   0.2500000  )
        16           B   tau(  16) = (   0.9500000   0.0875050   0.2500000  )
        17           B   tau(  17) = (   0.6000000   0.1750100   0.2500000  )
        18           B   tau(  18) = (   0.7000000   0.1750100   0.2500000  )
        19           B   tau(  19) = (   0.8000000   0.1750100   0.2500000  )
        20           B   tau(  20) = (   0.9000000   0.1750100   0.2500000  )
        21           B   tau(  21) = (   0.5500000   0.2625150   0.2500000  )
        22           B   tau(  22) = (   0.6500000   0.2625150   0.2500000  )
        23           B   tau(  23) = (   0.8500000   0.2625150   0.2500000  )
        24           B   tau(  24) = (   0.9500000   0.2625150   0.2500000  )
        25           B   tau(  25) = (   0.6000000   0.3500200   0.2500000  )
        26           B   tau(  26) = (   0.7000000   0.3500200   0.2500000  )
        27           B   tau(  27) = (   0.8000000   0.3500200   0.2500000  )
        28           B   tau(  28) = (   0.9000000   0.3500200   0.2500000  )
        29           B   tau(  29) = (   0.5500000   0.4375250   0.2500000  )
        30           B   tau(  30) = (   0.6500000   0.4375250   0.2500000  )
        31           B   tau(  31) = (   0.8500000   0.4375250   0.2500000  )
        32           B   tau(  32) = (   0.9500000   0.4375250   0.2500000  )
        33           B   tau(  33) = (   0.1000000   0.5250300   0.2500000  )
        34           B   tau(  34) = (   0.2000000   0.5250300   0.2500000  )
        35           B   tau(  35) = (   0.3000000   0.5250300   0.2500000  )
        36           B   tau(  36) = (   0.4000000   0.5250300   0.2500000  )
        37           B   tau(  37) = (   0.0500000   0.6125350   0.2500000  )
        38           B   tau(  38) = (   0.1500000   0.6125350   0.2500000  )
        39           B   tau(  39) = (   0.3500000   0.6125350   0.2500000  )
        40           B   tau(  40) = (   0.4500000   0.6125350   0.2500000  )
        41           B   tau(  41) = (   0.1000000   0.0000000   0.2500000  )
        42           B   tau(  42) = (   0.2000000   0.0000000   0.2500000  )
        43           B   tau(  43) = (   0.3000000   0.0000000   0.2500000  )
        44           B   tau(  44) = (   0.4000000   0.0000000   0.2500000  )
        45           B   tau(  45) = (   0.0500000   0.0875050   0.2500000  )
        46           B   tau(  46) = (   0.1500000   0.0875050   0.2500000  )
        47           B   tau(  47) = (   0.3500000   0.0875050   0.2500000  )
        48           B   tau(  48) = (   0.4500000   0.0875050   0.2500000  )
        49           B   tau(  49) = (   0.1000000   0.1750100   0.2500000  )
        50           B   tau(  50) = (   0.2000000   0.1750100   0.2500000  )
        51           B   tau(  51) = (   0.3000000   0.1750100   0.2500000  )
        52           B   tau(  52) = (   0.4000000   0.1750100   0.2500000  )
        53           B   tau(  53) = (   0.0500000   0.2625150   0.2500000  )
        54           B   tau(  54) = (   0.1500000   0.2625150   0.2500000  )
        55           B   tau(  55) = (   0.3500000   0.2625150   0.2500000  )
        56           B   tau(  56) = (   0.4500000   0.2625150   0.2500000  )
        57           B   tau(  57) = (   0.1000000   0.3500200   0.2500000  )
        58           B   tau(  58) = (   0.2000000   0.3500200   0.2500000  )
        59           B   tau(  59) = (   0.3000000   0.3500200   0.2500000  )
        60           B   tau(  60) = (   0.4000000   0.3500200   0.2500000  )
        61           B   tau(  61) = (   0.0500000   0.4375250   0.2500000  )
        62           B   tau(  62) = (   0.1500000   0.4375250   0.2500000  )
        63           B   tau(  63) = (   0.3500000   0.4375250   0.2500000  )
        64           B   tau(  64) = (   0.4500000   0.4375250   0.2500000  )

     number of k points=     4  Marzari-Vanderbilt smearing, width (Ry)=  0.0050
                       cart. coord. in units 2pi/alat
        k(    1) = (   0.0000000   0.0000000   0.0000000), wk =   0.5000000
        k(    2) = (   0.0000000  -0.7142449   0.0000000), wk =   0.5000000
        k(    3) = (  -0.5000000   0.0000000   0.0000000), wk =   0.5000000
        k(    4) = (  -0.5000000  -0.7142449   0.0000000), wk =   0.5000000

     Dense  grid:   688971 G-vectors     FFT dimensions: ( 160, 120,  80)

     Smooth grid:   243739 G-vectors     FFT dimensions: ( 120,  80,  60)

     Estimated max dynamical RAM per process >    1009.58 MB

     Estimated total dynamical RAM >       1.97 GB

     Check: negative core charge=   -0.000002

     Initial potential from superposition of free atoms

     starting charge  191.98192, renormalised to  192.00000
     Starting wfcs are  256 randomized atomic wfcs
