
     Program PWSCF v.6.7MaX starts on 13Dec2021 at 21:38: 7 

     This program is part of the open-source Quantum ESPRESSO suite
     for quantum simulation of materials; please cite
         "P. Giannozzi et al., J. Phys.:Condens. Matter 21 395502 (2009);
         "P. Giannozzi et al., J. Phys.:Condens. Matter 29 465901 (2017);
          URL http://www.quantum-espresso.org", 
     in publications or presentations arising from this work. More details at
     http://www.quantum-espresso.org/quote

     Parallel version (MPI), running on     8 processors

     MPI processes distributed on     1 nodes
     R & G space division:  proc/nbgrp/npool/nimage =       8
     Waiting for input...
     Reading input from standard input

     Current dimensions of program PWSCF are:
     Max number of different atomic species (ntypx) = 10
     Max number of k-points (npk) =  40000
     Max angular momentum in pseudopotentials (lmaxx) =  3
     file B.pbe-n-rrkjus_psl.1.0.0.UPF: wavefunction(s)  2S renormalized

     Subspace diagonalization in iterative solution of the eigenvalue problem:
     one sub-group per band group will be used
     scalapack distributed-memory algorithm (size of sub-group:  2*  2 procs)

 
     Parallelization info
     --------------------
     sticks:   dense  smooth     PW     G-vecs:    dense   smooth      PW
     Min        1660     970    251               103340    46066    6090
     Max        1662     971    253               103341    46069    6091
     Sum       13287    7765   2019               826723   368535   48727
 


     bravais-lattice index     =            8
     lattice parameter (alat)  =      31.5316  a.u.
     unit-cell volume          =   13167.7131 (a.u.)^3
     number of atoms/cell      =           65
     number of atomic types    =            2
     number of electrons       =       208.00
     number of Kohn-Sham states=          125
     kinetic-energy cutoff     =      35.0000  Ry
     charge density cutoff     =     240.0000  Ry
     scf convergence threshold =      1.0E-06
     mixing beta               =       0.1000
     number of iterations used =            8  plain     mixing
     energy convergence thresh.=      1.0E-04
     force convergence thresh. =      1.0E-03
     Exchange-correlation= PBE
                           (   1   4   3   4   0   0   0)
     nstep                     =           50


     celldm(1)=  31.531592  celldm(2)=   0.700038  celldm(3)=   0.599999
     celldm(4)=   0.000000  celldm(5)=   0.000000  celldm(6)=   0.000000

     crystal axes: (cart. coord. in units of alat)
               a(1) = (   1.000000   0.000000   0.000000 )  
               a(2) = (   0.000000   0.700038   0.000000 )  
               a(3) = (   0.000000   0.000000   0.599999 )  

     reciprocal axes: (cart. coord. in units 2 pi/alat)
               b(1) = (  1.000000  0.000000  0.000000 )  
               b(2) = (  0.000000  1.428493  0.000000 )  
               b(3) = (  0.000000  0.000000  1.666668 )  


     PseudoPot. # 1 for B  read from file:
     ./B.pbe-n-rrkjus_psl.1.0.0.UPF
     MD5 check sum: 21bc42b8719306ef1fe0545c7dabf1c6
     Pseudo is Ultrasoft + core correction, Zval =  3.0
     Generated using &quot;atomic&quot; code by A. Dal Corso  v.6.3MaX
     Using radial grid of 1059 points,  4 beta functions with: 
                l(1) =   0
                l(2) =   0
                l(3) =   1
                l(4) =   1
     Q(r) pseudized with 0 coefficients 


     PseudoPot. # 2 for Fe read from file:
     ./Fe.pbe-spn-rrkjus_psl.1.0.0.UPF
     MD5 check sum: 72ea77fed8e64ab3a2ccf2804dfc1862
     Pseudo is Ultrasoft + core correction, Zval = 16.0
     Generated using &quot;atomic&quot; code by A. Dal Corso  v.6.3
     Using radial grid of 1191 points,  6 beta functions with: 
                l(1) =   0
                l(2) =   0
                l(3) =   1
                l(4) =   1
                l(5) =   2
                l(6) =   2
     Q(r) pseudized with 0 coefficients 


     atomic species   valence    mass     pseudopotential
        B              3.00    10.81100     B ( 1.00)
        Fe            16.00    55.84500     Fe( 1.00)

     Starting magnetic structure 
     atomic species   magnetization
        B            1.000
        Fe           0.000

     No symmetry found


                                    s                        frac. trans.

      isym =  1     identity                                     

 cryst.   s( 1) = (     1          0          0      )
                  (     0          1          0      )
                  (     0          0          1      )

 cart.    s( 1) = (  1.0000000  0.0000000  0.0000000 )
                  (  0.0000000  1.0000000  0.0000000 )
                  (  0.0000000  0.0000000  1.0000000 )


     point group C_1 (1)    
     there are  1 classes
     the character table:

       E    
A      1.00

     the symmetry operations in each class and the name of the first element:

     E        1
          identity                                               

   Cartesian axes

     site n.     atom                  positions (alat units)
         1           B   tau(   1) = (   0.6070245   0.5274569   0.2923189  )
         2           B   tau(   2) = (   0.7046852   0.5273327   0.3007620  )
         3           B   tau(   3) = (   0.8001122   0.5260404   0.3009260  )
         4           B   tau(   4) = (   0.8986497   0.5253273   0.3005662  )
         5           B   tau(   5) = (   0.5482140   0.6151039   0.3006757  )
         6           B   tau(   6) = (   0.6487451   0.6141740   0.2993926  )
         7           B   tau(   7) = (   0.8527210   0.6127388   0.3000634  )
         8           B   tau(   8) = (   0.9523222   0.6129883   0.2998454  )
         9           B   tau(   9) = (   0.6041601   0.0002483   0.3035577  )
        10           B   tau(  10) = (   0.7029023   0.0003618   0.2981501  )
        11           B   tau(  11) = (   0.7985739   0.0001846   0.2989895  )
        12           B   tau(  12) = (   0.8977516   0.0001948   0.2993757  )
        13           B   tau(  13) = (   0.5481730   0.0855344   0.3008124  )
        14           B   tau(  14) = (   0.6486345   0.0864834   0.3003932  )
        15           B   tau(  15) = (   0.8527268   0.0872542   0.3003302  )
        16           B   tau(  16) = (   0.9523214   0.0871451   0.2991839  )
        17           B   tau(  17) = (   0.6066572   0.1733511   0.2962347  )
        18           B   tau(  18) = (   0.7046151   0.1732426   0.2993582  )
        19           B   tau(  19) = (   0.8000610   0.1744727   0.3009184  )
        20           B   tau(  20) = (   0.8985810   0.1750555   0.2995727  )
        21           B   tau(  21) = (   0.5499873   0.2535986   0.2982649  )
        22           B   tau(  22) = (   0.6558215   0.2601188   0.2950658  )
        23           B   tau(  23) = (   0.8526673   0.2622146   0.3007520  )
        24           B   tau(  24) = (   0.9524084   0.2626089   0.3002803  )
        25           B   tau(  25) = (   0.6101081   0.3497603   0.3037766  )
        26           B   tau(  26) = (   0.7065964   0.3501758   0.2981596  )
        27           B   tau(  27) = (   0.8011670   0.3502821   0.2991777  )
        28           B   tau(  28) = (   0.8996009   0.3503245   0.2993501  )
        29           B   tau(  29) = (   0.5494493   0.4476811   0.2922809  )
        30           B   tau(  30) = (   0.6550718   0.4402975   0.2983160  )
        31           B   tau(  31) = (   0.8527406   0.4378610   0.2998504  )
        32           B   tau(  32) = (   0.9523524   0.4374447   0.3012400  )
        33           B   tau(  33) = (   0.1012436   0.5253123   0.3006167  )
        34           B   tau(  34) = (   0.1997899   0.5260014   0.3009272  )
        35           B   tau(  35) = (   0.2952270   0.5273534   0.3008032  )
        36           B   tau(  36) = (   0.3928860   0.5274710   0.2920553  )
        37           B   tau(  37) = (   0.0475910   0.6129622   0.2998678  )
        38           B   tau(  38) = (   0.1471927   0.6127322   0.3000482  )
        39           B   tau(  39) = (   0.3511916   0.6141560   0.2996101  )
        40           B   tau(  40) = (   0.4517204   0.6151244   0.3006116  )
        41           B   tau(  41) = (   0.1021519   0.0001818   0.2994433  )
        42           B   tau(  42) = (   0.2013238   0.0001880   0.2990829  )
        43           B   tau(  43) = (   0.2970015   0.0003382   0.2983806  )
        44           B   tau(  44) = (   0.3957658   0.0002383   0.3033964  )
        45           B   tau(  45) = (   0.0475888   0.0871640   0.2992065  )
        46           B   tau(  46) = (   0.1471801   0.0872536   0.3002752  )
        47           B   tau(  47) = (   0.3512782   0.0864731   0.3005843  )
        48           B   tau(  48) = (   0.4517516   0.0854887   0.3007254  )
        49           B   tau(  49) = (   0.1013117   0.1750454   0.2996090  )
        50           B   tau(  50) = (   0.1998350   0.1744779   0.3008624  )
        51           B   tau(  51) = (   0.2952809   0.1731847   0.2992772  )
        52           B   tau(  52) = (   0.3932536   0.1733088   0.2959525  )
        53           B   tau(  53) = (   0.0474655   0.2626236   0.3003302  )
        54           B   tau(  54) = (   0.1472091   0.2622214   0.3007609  )
        55           B   tau(  55) = (   0.3440734   0.2600966   0.2947418  )
        56           B   tau(  56) = (   0.4499017   0.2535853   0.2977250  )
        57           B   tau(  57) = (   0.1002584   0.3503183   0.2994686  )
        58           B   tau(  58) = (   0.1986943   0.3502799   0.2991237  )
        59           B   tau(  59) = (   0.2932574   0.3501614   0.2979411  )
        60           B   tau(  60) = (   0.3898163   0.3497340   0.3023949  )
        61           B   tau(  61) = (   0.0475425   0.4374316   0.3012902  )
        62           B   tau(  62) = (   0.1471579   0.4378542   0.2998486  )
        63           B   tau(  63) = (   0.3449015   0.4402713   0.2981506  )
        64           B   tau(  64) = (   0.4504786   0.4476955   0.2917337  )
        65           Fe  tau(  65) = (   0.4997354   0.3522587   0.3317322  )

   Crystallographic axes

     site n.     atom                  positions (cryst. coord.)
         1           B   tau(   1) = (  0.6070245  0.7534686  0.4871986  )
         2           B   tau(   2) = (  0.7046852  0.7532911  0.5012705  )
         3           B   tau(   3) = (  0.8001122  0.7514451  0.5015438  )
         4           B   tau(   4) = (  0.8986497  0.7504265  0.5009442  )
         5           B   tau(   5) = (  0.5482140  0.8786717  0.5011266  )
         6           B   tau(   6) = (  0.6487451  0.8773433  0.4989882  )
         7           B   tau(   7) = (  0.8527210  0.8752932  0.5001061  )
         8           B   tau(   8) = (  0.9523222  0.8756496  0.4997428  )
         9           B   tau(   9) = (  0.6041601  0.0003547  0.5059299  )
        10           B   tau(  10) = (  0.7029023  0.0005168  0.4969173  )
        11           B   tau(  11) = (  0.7985739  0.0002637  0.4983164  )
        12           B   tau(  12) = (  0.8977516  0.0002783  0.4989601  )
        13           B   tau(  13) = (  0.5481730  0.1221852  0.5013545  )
        14           B   tau(  14) = (  0.6486345  0.1235409  0.5006558  )
        15           B   tau(  15) = (  0.8527268  0.1246421  0.5005508  )
        16           B   tau(  16) = (  0.9523214  0.1244862  0.4986404  )
        17           B   tau(  17) = (  0.6066572  0.2476308  0.4937250  )
        18           B   tau(  18) = (  0.7046151  0.2474759  0.4989308  )
        19           B   tau(  19) = (  0.8000610  0.2492331  0.5015311  )
        20           B   tau(  20) = (  0.8985810  0.2500656  0.4992883  )
        21           B   tau(  21) = (  0.5499873  0.3622639  0.4971087  )
        22           B   tau(  22) = (  0.6558215  0.3715780  0.4917767  )
        23           B   tau(  23) = (  0.8526673  0.3745717  0.5012539  )
        24           B   tau(  24) = (  0.9524084  0.3751350  0.5004677  )
        25           B   tau(  25) = (  0.6101081  0.4996302  0.5062948  )
        26           B   tau(  26) = (  0.7065964  0.5002237  0.4969332  )
        27           B   tau(  27) = (  0.8011670  0.5003755  0.4986300  )
        28           B   tau(  28) = (  0.8996009  0.5004362  0.4989173  )
        29           B   tau(  29) = (  0.5494493  0.6395094  0.4871353  )
        30           B   tau(  30) = (  0.6550718  0.6289620  0.4971939  )
        31           B   tau(  31) = (  0.8527406  0.6254815  0.4997512  )
        32           B   tau(  32) = (  0.9523524  0.6248868  0.5020672  )
        33           B   tau(  33) = (  0.1012436  0.7504050  0.5010283  )
        34           B   tau(  34) = (  0.1997899  0.7513894  0.5015459  )
        35           B   tau(  35) = (  0.2952270  0.7533208  0.5013391  )
        36           B   tau(  36) = (  0.3928860  0.7534887  0.4867593  )
        37           B   tau(  37) = (  0.0475910  0.8756124  0.4997801  )
        38           B   tau(  38) = (  0.1471927  0.8752838  0.5000808  )
        39           B   tau(  39) = (  0.3511916  0.8773177  0.4993506  )
        40           B   tau(  40) = (  0.4517204  0.8787010  0.5010198  )
        41           B   tau(  41) = (  0.1021519  0.0002597  0.4990726  )
        42           B   tau(  42) = (  0.2013238  0.0002686  0.4984720  )
        43           B   tau(  43) = (  0.2970015  0.0004831  0.4973016  )
        44           B   tau(  44) = (  0.3957658  0.0003405  0.5056612  )
        45           B   tau(  45) = (  0.0475888  0.1245132  0.4986780  )
        46           B   tau(  46) = (  0.1471801  0.1246412  0.5004592  )
        47           B   tau(  47) = (  0.3512782  0.1235262  0.5009744  )
        48           B   tau(  48) = (  0.4517516  0.1221200  0.5012095  )
        49           B   tau(  49) = (  0.1013117  0.2500512  0.4993488  )
        50           B   tau(  50) = (  0.1998350  0.2492405  0.5014379  )
        51           B   tau(  51) = (  0.2952809  0.2473932  0.4987958  )
        52           B   tau(  52) = (  0.3932536  0.2475705  0.4932547  )
        53           B   tau(  53) = (  0.0474655  0.3751561  0.5005508  )
        54           B   tau(  54) = (  0.1472091  0.3745815  0.5012686  )
        55           B   tau(  55) = (  0.3440734  0.3715462  0.4912367  )
        56           B   tau(  56) = (  0.4499017  0.3622448  0.4962088  )
        57           B   tau(  57) = (  0.1002584  0.5004273  0.4991149  )
        58           B   tau(  58) = (  0.1986943  0.5003724  0.4985400  )
        59           B   tau(  59) = (  0.2932574  0.5002031  0.4965690  )
        60           B   tau(  60) = (  0.3898163  0.4995926  0.5039920  )
        61           B   tau(  61) = (  0.0475425  0.6248680  0.5021509  )
        62           B   tau(  62) = (  0.1471579  0.6254718  0.4997481  )
        63           B   tau(  63) = (  0.3449015  0.6289245  0.4969182  )
        64           B   tau(  64) = (  0.4504786  0.6395299  0.4862234  )
        65           Fe  tau(  65) = (  0.4997354  0.5031991  0.5528876  )

     number of k points=     5  Marzari-Vanderbilt smearing, width (Ry)=  0.0020
                       cart. coord. in units 2pi/alat
        k(    1) = (   0.0000000   0.0000000   0.0000000), wk =   0.1111111
        k(    2) = (   0.0000000   0.4761644   0.0000000), wk =   0.2222222
        k(    3) = (   0.3333333   0.0000000   0.0000000), wk =   0.2222222
        k(    4) = (   0.3333333   0.4761644   0.0000000), wk =   0.2222222
        k(    5) = (  -0.3333333   0.4761644   0.0000000), wk =   0.2222222

                       cryst. coord.
        k(    1) = (   0.0000000   0.0000000   0.0000000), wk =   0.1111111
        k(    2) = (   0.0000000   0.3333333   0.0000000), wk =   0.2222222
        k(    3) = (   0.3333333   0.0000000   0.0000000), wk =   0.2222222
        k(    4) = (   0.3333333   0.3333333   0.0000000), wk =   0.2222222
        k(    5) = (  -0.3333333   0.3333333   0.0000000), wk =   0.2222222

     Dense  grid:   826723 G-vectors     FFT dimensions: ( 160, 120,  96)

     Smooth grid:   368535 G-vectors     FFT dimensions: ( 120,  90,  72)

     Dynamical RAM for                 wfc:      10.98 MB

     Dynamical RAM for     wfc (w. buffer):     120.74 MB

     Dynamical RAM for           str. fact:       3.15 MB

     Dynamical RAM for           local pot:       0.00 MB

     Dynamical RAM for          nlocal pot:      46.54 MB

     Dynamical RAM for                qrad:       2.49 MB

     Dynamical RAM for          rho,v,vnew:      20.01 MB

     Dynamical RAM for               rhoin:       6.67 MB

     Dynamical RAM for            rho*nmix:      50.46 MB

     Dynamical RAM for           G-vectors:       6.26 MB

     Dynamical RAM for          h,s,v(r/c):       0.72 MB

     Dynamical RAM for          <psi|beta>:       1.01 MB

     Dynamical RAM for                 psi:      21.95 MB

     Dynamical RAM for                hpsi:      21.95 MB

     Dynamical RAM for                spsi:      21.95 MB

     Dynamical RAM for      wfcinit/wfcrot:      48.34 MB

     Dynamical RAM for           addusdens:     395.79 MB

     Dynamical RAM for          addusforce:     594.98 MB

     Estimated static dynamical RAM per process >     271.61 MB

     Estimated max dynamical RAM per process >     866.58 MB

     Estimated total dynamical RAM >       6.77 GB

     Check: negative core charge=   -0.000002
     Generating pointlists ...
     new r_m :   0.0390 (alat units)  1.2301 (a.u.) for type    1
     new r_m :   0.0469 (alat units)  1.4801 (a.u.) for type    2

     Initial potential from superposition of free atoms

     starting charge  207.98149, renormalised to  208.00000

     negative rho (up, down):  2.226E-05 4.170E-03
     Starting wfcs are  266 randomized atomic wfcs

     total cpu time spent up to now is       53.2 secs

     Self-consistent Calculation

     iteration #  1     ecut=    35.00 Ry     beta= 0.10
     Davidson diagonalization with overlap
     ethr =  1.00E-02,  avg # of iterations =  2.2

     negative rho (up, down):  2.390E-05 1.876E-03

     total cpu time spent up to now is      136.6 secs

     total energy              =    -635.99001846 Ry
     estimated scf accuracy    <      12.29670209 Ry

     total magnetization       =    41.27 Bohr mag/cell
     absolute magnetization    =    41.77 Bohr mag/cell

     iteration #  2     ecut=    35.00 Ry     beta= 0.10
     Davidson diagonalization with overlap
     ethr =  5.91E-03,  avg # of iterations =  1.9

     negative rho (up, down):  1.518E-03 1.439E-02

     total cpu time spent up to now is      195.7 secs

     total energy              =    -637.37766042 Ry
     estimated scf accuracy    <      21.21074077 Ry

     total magnetization       =    27.80 Bohr mag/cell
     absolute magnetization    =    28.07 Bohr mag/cell

     iteration #  3     ecut=    35.00 Ry     beta= 0.10
     Davidson diagonalization with overlap
     ethr =  5.91E-03,  avg # of iterations =  1.0

     negative rho (up, down):  1.380E-02 4.488E-02

     total cpu time spent up to now is      250.6 secs

     total energy              =    -642.85069398 Ry
     estimated scf accuracy    <       7.74677639 Ry

     total magnetization       =    27.04 Bohr mag/cell
     absolute magnetization    =    27.57 Bohr mag/cell

     iteration #  4     ecut=    35.00 Ry     beta= 0.10
     Davidson diagonalization with overlap
     ethr =  3.72E-03,  avg # of iterations =  1.9

     negative rho (up, down):  4.490E-02 9.267E-02

     total cpu time spent up to now is      311.7 secs

     total energy              =    -646.68470185 Ry
     estimated scf accuracy    <       4.46163216 Ry

     total magnetization       =    20.63 Bohr mag/cell
     absolute magnetization    =    21.39 Bohr mag/cell

     iteration #  5     ecut=    35.00 Ry     beta= 0.10
     Davidson diagonalization with overlap
     ethr =  2.15E-03,  avg # of iterations =  1.5

     negative rho (up, down):  3.697E-02 7.439E-02

     total cpu time spent up to now is      370.0 secs

     total energy              =    -647.12507542 Ry
     estimated scf accuracy    <       2.82068837 Ry

     total magnetization       =    13.52 Bohr mag/cell
     absolute magnetization    =    14.34 Bohr mag/cell

     iteration #  6     ecut=    35.00 Ry     beta= 0.10
     Davidson diagonalization with overlap
     ethr =  1.36E-03,  avg # of iterations =  1.3

     negative rho (up, down):  4.677E-02 7.724E-02

     total cpu time spent up to now is      427.0 secs

     total energy              =    -648.22008785 Ry
     estimated scf accuracy    <       0.95325586 Ry

     total magnetization       =    11.47 Bohr mag/cell
     absolute magnetization    =    12.36 Bohr mag/cell

     iteration #  7     ecut=    35.00 Ry     beta= 0.10
     Davidson diagonalization with overlap
     ethr =  4.58E-04,  avg # of iterations =  7.3

     negative rho (up, down):  4.902E-02 7.258E-02

     total cpu time spent up to now is      491.2 secs

     total energy              =    -648.62911404 Ry
     estimated scf accuracy    <       0.39861293 Ry

     total magnetization       =     9.29 Bohr mag/cell
     absolute magnetization    =     9.87 Bohr mag/cell

     iteration #  8     ecut=    35.00 Ry     beta= 0.10
     Davidson diagonalization with overlap
     ethr =  1.92E-04,  avg # of iterations =  6.4

     negative rho (up, down):  4.992E-02 6.864E-02

     total cpu time spent up to now is      556.1 secs

     total energy              =    -648.78707549 Ry
     estimated scf accuracy    <       1.13895073 Ry

     total magnetization       =     6.64 Bohr mag/cell
     absolute magnetization    =     7.81 Bohr mag/cell

     iteration #  9     ecut=    35.00 Ry     beta= 0.10
     Davidson diagonalization with overlap
     ethr =  1.92E-04,  avg # of iterations =  1.1

     negative rho (up, down):  5.022E-02 6.509E-02

     total cpu time spent up to now is      613.5 secs

     total energy              =    -648.88514554 Ry
     estimated scf accuracy    <       0.06810449 Ry

     total magnetization       =     4.80 Bohr mag/cell
     absolute magnetization    =     5.97 Bohr mag/cell

     iteration # 10     ecut=    35.00 Ry     beta= 0.10
     Davidson diagonalization with overlap
     c_bands:  1 eigenvalues not converged
     c_bands:  1 eigenvalues not converged
     ethr =  3.27E-05,  avg # of iterations = 13.5

     negative rho (up, down):  4.939E-02 5.971E-02

     total cpu time spent up to now is      686.9 secs

     total energy              =    -648.92250719 Ry
     estimated scf accuracy    <       0.05362649 Ry

     total magnetization       =     3.20 Bohr mag/cell
     absolute magnetization    =     4.55 Bohr mag/cell

     iteration # 11     ecut=    35.00 Ry     beta= 0.10
     Davidson diagonalization with overlap
     ethr =  2.58E-05,  avg # of iterations =  3.7

     negative rho (up, down):  4.539E-02 5.285E-02

     total cpu time spent up to now is      750.9 secs

     total energy              =    -648.94155246 Ry
     estimated scf accuracy    <       0.01431718 Ry

     total magnetization       =     1.80 Bohr mag/cell
     absolute magnetization    =     3.40 Bohr mag/cell

     iteration # 12     ecut=    35.00 Ry     beta= 0.10
     Davidson diagonalization with overlap
     ethr =  6.88E-06,  avg # of iterations =  7.3

     negative rho (up, down):  3.959E-02 4.608E-02

     total cpu time spent up to now is      824.6 secs

     total energy              =    -648.94880316 Ry
     estimated scf accuracy    <       0.06015907 Ry

     total magnetization       =     1.28 Bohr mag/cell
     absolute magnetization    =     3.00 Bohr mag/cell

     iteration # 13     ecut=    35.00 Ry     beta= 0.10
     Davidson diagonalization with overlap
     ethr =  6.88E-06,  avg # of iterations =  1.0

     negative rho (up, down):  3.564E-02 3.973E-02

     total cpu time spent up to now is      878.0 secs

     total energy              =    -648.95651092 Ry
     estimated scf accuracy    <       0.01065924 Ry

     total magnetization       =     1.27 Bohr mag/cell
     absolute magnetization    =     2.92 Bohr mag/cell

     iteration # 14     ecut=    35.00 Ry     beta= 0.10
     Davidson diagonalization with overlap
     ethr =  5.12E-06,  avg # of iterations =  2.8

     negative rho (up, down):  3.429E-02 3.357E-02

     total cpu time spent up to now is      935.0 secs

     total energy              =    -648.96439042 Ry
     estimated scf accuracy    <       0.00724308 Ry

     total magnetization       =     1.11 Bohr mag/cell
     absolute magnetization    =     2.76 Bohr mag/cell

     iteration # 15     ecut=    35.00 Ry     beta= 0.10
     Davidson diagonalization with overlap
     ethr =  3.48E-06,  avg # of iterations =  3.8

     negative rho (up, down):  3.151E-02 2.898E-02

     total cpu time spent up to now is     1000.2 secs

     total energy              =    -648.96899411 Ry
     estimated scf accuracy    <       0.00322197 Ry

     total magnetization       =     0.75 Bohr mag/cell
     absolute magnetization    =     2.43 Bohr mag/cell

     iteration # 16     ecut=    35.00 Ry     beta= 0.10
     Davidson diagonalization with overlap
     c_bands:  1 eigenvalues not converged
     ethr =  1.55E-06,  avg # of iterations =  7.3

     negative rho (up, down):  3.135E-02 2.390E-02

     total cpu time spent up to now is     1065.4 secs

     total energy              =    -648.97264406 Ry
     estimated scf accuracy    <       0.00195888 Ry

     total magnetization       =     0.66 Bohr mag/cell
     absolute magnetization    =     2.32 Bohr mag/cell

     iteration # 17     ecut=    35.00 Ry     beta= 0.10
     Davidson diagonalization with overlap
     ethr =  9.42E-07,  avg # of iterations =  4.8

     negative rho (up, down):  2.968E-02 2.023E-02

     total cpu time spent up to now is     1133.4 secs

     total energy              =    -648.97512003 Ry
     estimated scf accuracy    <       0.00102825 Ry

     total magnetization       =     0.54 Bohr mag/cell
     absolute magnetization    =     2.19 Bohr mag/cell

     iteration # 18     ecut=    35.00 Ry     beta= 0.10
     Davidson diagonalization with overlap
     ethr =  4.94E-07,  avg # of iterations =  3.2

     negative rho (up, down):  2.722E-02 1.735E-02

     total cpu time spent up to now is     1199.8 secs

     total energy              =    -648.97683959 Ry
     estimated scf accuracy    <       0.00090145 Ry

     total magnetization       =     0.46 Bohr mag/cell
     absolute magnetization    =     2.13 Bohr mag/cell

     iteration # 19     ecut=    35.00 Ry     beta= 0.10
     Davidson diagonalization with overlap
     ethr =  4.33E-07,  avg # of iterations =  2.4

     negative rho (up, down):  1.957E-02 1.725E-02

     total cpu time spent up to now is     1261.6 secs

     total energy              =    -648.97787809 Ry
     estimated scf accuracy    <       0.00092768 Ry

     total magnetization       =     0.42 Bohr mag/cell
     absolute magnetization    =     2.11 Bohr mag/cell

     iteration # 20     ecut=    35.00 Ry     beta= 0.10
     Davidson diagonalization with overlap
     ethr =  4.33E-07,  avg # of iterations =  2.0

     negative rho (up, down):  1.709E-02 1.498E-02

     total cpu time spent up to now is     1321.1 secs

     total energy              =    -648.97880206 Ry
     estimated scf accuracy    <       0.00099245 Ry

     total magnetization       =     0.37 Bohr mag/cell
     absolute magnetization    =     2.04 Bohr mag/cell

     iteration # 21     ecut=    35.00 Ry     beta= 0.10
     Davidson diagonalization with overlap
     ethr =  4.33E-07,  avg # of iterations =  1.2

     negative rho (up, down):  1.552E-02 1.259E-02

     total cpu time spent up to now is     1375.1 secs

     total energy              =    -648.97989848 Ry
     estimated scf accuracy    <       0.00098928 Ry

     total magnetization       =     0.45 Bohr mag/cell
     absolute magnetization    =     2.13 Bohr mag/cell

     iteration # 22     ecut=    35.00 Ry     beta= 0.10
     Davidson diagonalization with overlap
     ethr =  4.33E-07,  avg # of iterations =  2.9

     negative rho (up, down):  1.180E-02 1.189E-02

     total cpu time spent up to now is     1435.7 secs

     total energy              =    -648.98047736 Ry
     estimated scf accuracy    <       0.00112375 Ry

     total magnetization       =     0.46 Bohr mag/cell
     absolute magnetization    =     2.17 Bohr mag/cell

     iteration # 23     ecut=    35.00 Ry     beta= 0.10
     Davidson diagonalization with overlap
     ethr =  4.33E-07,  avg # of iterations =  2.4

     negative rho (up, down):  9.216E-03 1.178E-02

     total cpu time spent up to now is     1493.3 secs

     total energy              =    -648.98071106 Ry
     estimated scf accuracy    <       0.00116965 Ry

     total magnetization       =     0.48 Bohr mag/cell
     absolute magnetization    =     2.18 Bohr mag/cell

     iteration # 24     ecut=    35.00 Ry     beta= 0.10
     Davidson diagonalization with overlap
     ethr =  4.33E-07,  avg # of iterations =  1.4

     negative rho (up, down):  7.668E-03 1.181E-02

     total cpu time spent up to now is     1554.6 secs

     total energy              =    -648.98092065 Ry
     estimated scf accuracy    <       0.00117629 Ry

     total magnetization       =     0.45 Bohr mag/cell
     absolute magnetization    =     2.14 Bohr mag/cell

     iteration # 25     ecut=    35.00 Ry     beta= 0.10
     Davidson diagonalization with overlap
     ethr =  4.33E-07,  avg # of iterations =  1.2

     negative rho (up, down):  8.274E-03 1.350E-02

     total cpu time spent up to now is     1612.5 secs

     total energy              =    -648.97974899 Ry
     estimated scf accuracy    <       0.00107719 Ry

     total magnetization       =     0.39 Bohr mag/cell
     absolute magnetization    =     2.08 Bohr mag/cell

     iteration # 26     ecut=    35.00 Ry     beta= 0.10
     Davidson diagonalization with overlap
     ethr =  4.33E-07,  avg # of iterations =  2.2

     negative rho (up, down):  9.025E-03 1.314E-02

     total cpu time spent up to now is     1670.9 secs

     total energy              =    -648.97999787 Ry
     estimated scf accuracy    <       0.00113451 Ry

     total magnetization       =     0.47 Bohr mag/cell
     absolute magnetization    =     2.12 Bohr mag/cell

     iteration # 27     ecut=    35.00 Ry     beta= 0.10
     Davidson diagonalization with overlap
     ethr =  4.33E-07,  avg # of iterations =  1.0

     negative rho (up, down):  6.180E-03 9.473E-03

     total cpu time spent up to now is     1726.7 secs

     total energy              =    -648.98158944 Ry
     estimated scf accuracy    <       0.00110458 Ry

     total magnetization       =     0.45 Bohr mag/cell
     absolute magnetization    =     2.10 Bohr mag/cell

     iteration # 28     ecut=    35.00 Ry     beta= 0.10
     Davidson diagonalization with overlap
     ethr =  4.33E-07,  avg # of iterations =  2.0

     negative rho (up, down):  1.381E-02 1.522E-02

     total cpu time spent up to now is     1791.4 secs

     total energy              =    -648.97845249 Ry
     estimated scf accuracy    <       0.00125774 Ry

     total magnetization       =     0.39 Bohr mag/cell
     absolute magnetization    =     2.09 Bohr mag/cell

     iteration # 29     ecut=    35.00 Ry     beta= 0.10
     Davidson diagonalization with overlap
     ethr =  4.33E-07,  avg # of iterations =  2.7

     negative rho (up, down):  8.866E-03 9.990E-03

     total cpu time spent up to now is     1859.9 secs

     total energy              =    -648.98030181 Ry
     estimated scf accuracy    <       0.00122783 Ry

     total magnetization       =     0.45 Bohr mag/cell
     absolute magnetization    =     2.07 Bohr mag/cell

     iteration # 30     ecut=    35.00 Ry     beta= 0.10
     Davidson diagonalization with overlap
     ethr =  4.33E-07,  avg # of iterations =  2.0

     negative rho (up, down):  1.489E-02 1.471E-02

     total cpu time spent up to now is     1920.8 secs

     total energy              =    -648.97839509 Ry
     estimated scf accuracy    <       0.00171053 Ry

     total magnetization       =     0.53 Bohr mag/cell
     absolute magnetization    =     2.21 Bohr mag/cell

     iteration # 31     ecut=    35.00 Ry     beta= 0.10
     Davidson diagonalization with overlap
     ethr =  4.33E-07,  avg # of iterations =  2.0

     negative rho (up, down):  1.621E-02 1.516E-02

     total cpu time spent up to now is     1980.2 secs

     total energy              =    -648.97856472 Ry
     estimated scf accuracy    <       0.00122311 Ry

     total magnetization       =     0.40 Bohr mag/cell
     absolute magnetization    =     2.03 Bohr mag/cell

     iteration # 32     ecut=    35.00 Ry     beta= 0.10
     Davidson diagonalization with overlap
     ethr =  4.33E-07,  avg # of iterations =  1.0

     negative rho (up, down):  2.351E-02 2.032E-02

     total cpu time spent up to now is     2034.3 secs

     total energy              =    -648.97651142 Ry
     estimated scf accuracy    <       0.00104461 Ry

     total magnetization       =     0.35 Bohr mag/cell
     absolute magnetization    =     1.97 Bohr mag/cell

     iteration # 33     ecut=    35.00 Ry     beta= 0.10
     Davidson diagonalization with overlap
     ethr =  4.33E-07,  avg # of iterations =  2.6

     negative rho (up, down):  3.044E-02 2.435E-02

     total cpu time spent up to now is     2100.4 secs

     total energy              =    -648.97445538 Ry
     estimated scf accuracy    <       0.00082814 Ry

     total magnetization       =     0.34 Bohr mag/cell
     absolute magnetization    =     1.89 Bohr mag/cell

     iteration # 34     ecut=    35.00 Ry     beta= 0.10
     Davidson diagonalization with overlap
     ethr =  3.98E-07,  avg # of iterations =  2.8

     negative rho (up, down):  5.497E-02 4.374E-02

     total cpu time spent up to now is     2169.9 secs

     total energy              =    -648.96533752 Ry
     estimated scf accuracy    <       0.00078696 Ry

     total magnetization       =     0.42 Bohr mag/cell
     absolute magnetization    =     1.92 Bohr mag/cell

     iteration # 35     ecut=    35.00 Ry     beta= 0.10
     Davidson diagonalization with overlap
     ethr =  3.78E-07,  avg # of iterations =  4.9

     negative rho (up, down):  4.969E-02 3.939E-02

     total cpu time spent up to now is     2254.7 secs

     total energy              =    -648.96828434 Ry
     estimated scf accuracy    <       0.00049119 Ry

     total magnetization       =     0.39 Bohr mag/cell
     absolute magnetization    =     1.68 Bohr mag/cell

     iteration # 36     ecut=    35.00 Ry     beta= 0.10
     Davidson diagonalization with overlap
     ethr =  2.36E-07,  avg # of iterations =  2.0

     negative rho (up, down):  4.788E-02 4.271E-02

     total cpu time spent up to now is     2316.6 secs

     total energy              =    -648.96850151 Ry
     estimated scf accuracy    <       0.00039071 Ry

     total magnetization       =     0.38 Bohr mag/cell
     absolute magnetization    =     1.67 Bohr mag/cell

     iteration # 37     ecut=    35.00 Ry     beta= 0.10
     Davidson diagonalization with overlap
     ethr =  1.88E-07,  avg # of iterations =  2.8

     negative rho (up, down):  5.128E-02 4.606E-02

     total cpu time spent up to now is     2399.0 secs

     total energy              =    -648.96747579 Ry
     estimated scf accuracy    <       0.00027214 Ry

     total magnetization       =     0.33 Bohr mag/cell
     absolute magnetization    =     1.55 Bohr mag/cell

     iteration # 38     ecut=    35.00 Ry     beta= 0.10
     Davidson diagonalization with overlap
     ethr =  1.31E-07,  avg # of iterations =  3.0

     negative rho (up, down):  4.706E-02 4.383E-02

     total cpu time spent up to now is     2478.1 secs

     total energy              =    -648.96888244 Ry
     estimated scf accuracy    <       0.00013696 Ry

     total magnetization       =     0.33 Bohr mag/cell
     absolute magnetization    =     1.47 Bohr mag/cell

     iteration # 39     ecut=    35.00 Ry     beta= 0.10
     Davidson diagonalization with overlap
     ethr =  6.58E-08,  avg # of iterations =  2.0

     negative rho (up, down):  3.901E-02 3.948E-02

     total cpu time spent up to now is     2547.0 secs

     total energy              =    -648.97113180 Ry
     estimated scf accuracy    <       0.00012730 Ry

     total magnetization       =     0.32 Bohr mag/cell
     absolute magnetization    =     1.45 Bohr mag/cell

     iteration # 40     ecut=    35.00 Ry     beta= 0.10
     Davidson diagonalization with overlap
     ethr =  6.12E-08,  avg # of iterations =  3.7

     negative rho (up, down):  3.504E-02 3.642E-02

     total cpu time spent up to now is     2621.5 secs

     total energy              =    -648.97241636 Ry
     estimated scf accuracy    <       0.00009074 Ry

     total magnetization       =     0.32 Bohr mag/cell
     absolute magnetization    =     1.46 Bohr mag/cell

     iteration # 41     ecut=    35.00 Ry     beta= 0.10
     Davidson diagonalization with overlap
     ethr =  4.36E-08,  avg # of iterations =  2.1

     negative rho (up, down):  2.992E-02 3.208E-02

     total cpu time spent up to now is     2688.9 secs

     total energy              =    -648.97402047 Ry
     estimated scf accuracy    <       0.00007263 Ry

     total magnetization       =     0.32 Bohr mag/cell
     absolute magnetization    =     1.46 Bohr mag/cell

     iteration # 42     ecut=    35.00 Ry     beta= 0.10
     Davidson diagonalization with overlap
     ethr =  3.49E-08,  avg # of iterations =  3.5

     negative rho (up, down):  2.576E-02 2.765E-02

     total cpu time spent up to now is     2757.6 secs

     total energy              =    -648.97541922 Ry
     estimated scf accuracy    <       0.00009219 Ry

     total magnetization       =     0.31 Bohr mag/cell
     absolute magnetization    =     1.48 Bohr mag/cell

     iteration # 43     ecut=    35.00 Ry     beta= 0.10
     Davidson diagonalization with overlap
     ethr =  3.49E-08,  avg # of iterations =  2.8

     negative rho (up, down):  2.663E-02 2.693E-02

     total cpu time spent up to now is     2821.3 secs

     total energy              =    -648.97526774 Ry
     estimated scf accuracy    <       0.00010460 Ry

     total magnetization       =     0.31 Bohr mag/cell
     absolute magnetization    =     1.49 Bohr mag/cell

     iteration # 44     ecut=    35.00 Ry     beta= 0.10
     Davidson diagonalization with overlap
     ethr =  3.49E-08,  avg # of iterations =  2.7

     negative rho (up, down):  2.086E-02 2.252E-02

     total cpu time spent up to now is     2894.8 secs

     total energy              =    -648.97701910 Ry
     estimated scf accuracy    <       0.00026030 Ry

     total magnetization       =     0.32 Bohr mag/cell
     absolute magnetization    =     1.44 Bohr mag/cell

     iteration # 45     ecut=    35.00 Ry     beta= 0.10
     Davidson diagonalization with overlap
     ethr =  3.49E-08,  avg # of iterations =  3.3

     negative rho (up, down):  1.773E-02 1.768E-02

     total cpu time spent up to now is     2964.2 secs

     total energy              =    -648.97816156 Ry
     estimated scf accuracy    <       0.00024645 Ry

     total magnetization       =     0.30 Bohr mag/cell
     absolute magnetization    =     1.48 Bohr mag/cell

     iteration # 46     ecut=    35.00 Ry     beta= 0.10
     Davidson diagonalization with overlap
     ethr =  3.49E-08,  avg # of iterations =  3.0

     negative rho (up, down):  1.447E-02 1.386E-02

     total cpu time spent up to now is     3031.6 secs

     total energy              =    -648.97911779 Ry
     estimated scf accuracy    <       0.00021614 Ry

     total magnetization       =     0.31 Bohr mag/cell
     absolute magnetization    =     1.49 Bohr mag/cell

     iteration # 47     ecut=    35.00 Ry     beta= 0.10
     Davidson diagonalization with overlap
     ethr =  3.49E-08,  avg # of iterations =  2.9

     negative rho (up, down):  1.133E-02 1.027E-02

     total cpu time spent up to now is     3097.5 secs

     total energy              =    -648.97999784 Ry
     estimated scf accuracy    <       0.00019027 Ry

     total magnetization       =     0.31 Bohr mag/cell
     absolute magnetization    =     1.49 Bohr mag/cell

     iteration # 48     ecut=    35.00 Ry     beta= 0.10
     Davidson diagonalization with overlap
     ethr =  3.49E-08,  avg # of iterations =  2.6

     negative rho (up, down):  1.277E-02 1.197E-02

     total cpu time spent up to now is     3164.0 secs

     total energy              =    -648.97965002 Ry
     estimated scf accuracy    <       0.00020754 Ry

     total magnetization       =     0.31 Bohr mag/cell
     absolute magnetization    =     1.49 Bohr mag/cell

     iteration # 49     ecut=    35.00 Ry     beta= 0.10
     Davidson diagonalization with overlap
     ethr =  3.49E-08,  avg # of iterations =  2.5

     negative rho (up, down):  9.859E-03 8.334E-03

     total cpu time spent up to now is     3237.8 secs

     total energy              =    -648.98056934 Ry
     estimated scf accuracy    <       0.00024112 Ry

     total magnetization       =     0.30 Bohr mag/cell
     absolute magnetization    =     1.49 Bohr mag/cell

     iteration # 50     ecut=    35.00 Ry     beta= 0.10
     Davidson diagonalization with overlap
     ethr =  3.49E-08,  avg # of iterations =  2.4

     negative rho (up, down):  9.277E-03 7.263E-03

     total cpu time spent up to now is     3305.2 secs

     total energy              =    -648.98081564 Ry
     estimated scf accuracy    <       0.00019058 Ry

     total magnetization       =     0.30 Bohr mag/cell
     absolute magnetization    =     1.49 Bohr mag/cell

     iteration # 51     ecut=    35.00 Ry     beta= 0.10
     Davidson diagonalization with overlap
     ethr =  3.49E-08,  avg # of iterations =  2.0

     negative rho (up, down):  9.890E-03 8.406E-03

     total cpu time spent up to now is     3361.8 secs

     total energy              =    -648.98064346 Ry
     estimated scf accuracy    <       0.00021332 Ry

     total magnetization       =     0.30 Bohr mag/cell
     absolute magnetization    =     1.50 Bohr mag/cell

     iteration # 52     ecut=    35.00 Ry     beta= 0.10
     Davidson diagonalization with overlap
     ethr =  3.49E-08,  avg # of iterations =  2.6

     negative rho (up, down):  5.855E-03 5.027E-03

     total cpu time spent up to now is     3433.2 secs

     total energy              =    -648.98141938 Ry
     estimated scf accuracy    <       0.00016848 Ry

     total magnetization       =     0.30 Bohr mag/cell
     absolute magnetization    =     1.48 Bohr mag/cell

     iteration # 53     ecut=    35.00 Ry     beta= 0.10
     Davidson diagonalization with overlap
     ethr =  3.49E-08,  avg # of iterations =  3.0

     negative rho (up, down):  4.852E-03 3.777E-03

     total cpu time spent up to now is     3507.0 secs

     total energy              =    -648.98156831 Ry
     estimated scf accuracy    <       0.00014820 Ry

     total magnetization       =     0.30 Bohr mag/cell
     absolute magnetization    =     1.45 Bohr mag/cell

     iteration # 54     ecut=    35.00 Ry     beta= 0.10
     Davidson diagonalization with overlap
     ethr =  3.49E-08,  avg # of iterations =  1.8

     negative rho (up, down):  3.902E-03 3.470E-03

     total cpu time spent up to now is     3565.9 secs

     total energy              =    -648.98167211 Ry
     estimated scf accuracy    <       0.00014682 Ry

     total magnetization       =     0.29 Bohr mag/cell
     absolute magnetization    =     1.48 Bohr mag/cell

     iteration # 55     ecut=    35.00 Ry     beta= 0.10
     Davidson diagonalization with overlap
     ethr =  3.49E-08,  avg # of iterations =  2.3

     negative rho (up, down):  3.293E-03 2.615E-03

     total cpu time spent up to now is     3626.9 secs

     total energy              =    -648.98174902 Ry
     estimated scf accuracy    <       0.00014643 Ry

     total magnetization       =     0.28 Bohr mag/cell
     absolute magnetization    =     1.52 Bohr mag/cell

     iteration # 56     ecut=    35.00 Ry     beta= 0.10
     Davidson diagonalization with overlap
     ethr =  3.49E-08,  avg # of iterations =  2.0

     negative rho (up, down):  2.522E-03 1.883E-03

     total cpu time spent up to now is     3686.2 secs

     total energy              =    -648.98179940 Ry
     estimated scf accuracy    <       0.00016481 Ry

     total magnetization       =     0.28 Bohr mag/cell
     absolute magnetization    =     1.53 Bohr mag/cell

     iteration # 57     ecut=    35.00 Ry     beta= 0.10
     Davidson diagonalization with overlap
     ethr =  3.49E-08,  avg # of iterations =  3.5

     negative rho (up, down):  2.500E-03 2.059E-03

     total cpu time spent up to now is     3756.1 secs

     total energy              =    -648.98185663 Ry
     estimated scf accuracy    <       0.00018323 Ry

     total magnetization       =     0.26 Bohr mag/cell
     absolute magnetization    =     1.58 Bohr mag/cell

     iteration # 58     ecut=    35.00 Ry     beta= 0.10
     Davidson diagonalization with overlap
     ethr =  3.49E-08,  avg # of iterations =  2.0

     negative rho (up, down):  3.603E-03 3.875E-03

     total cpu time spent up to now is     3822.3 secs

     total energy              =    -648.98165020 Ry
     estimated scf accuracy    <       0.00012854 Ry

     total magnetization       =     0.24 Bohr mag/cell
     absolute magnetization    =     1.56 Bohr mag/cell

     iteration # 59     ecut=    35.00 Ry     beta= 0.10
     Davidson diagonalization with overlap
     ethr =  3.49E-08,  avg # of iterations =  3.0

     negative rho (up, down):  5.128E-03 5.235E-03

     total cpu time spent up to now is     3900.9 secs

     total energy              =    -648.98158151 Ry
     estimated scf accuracy    <       0.00010439 Ry

     total magnetization       =     0.25 Bohr mag/cell
     absolute magnetization    =     1.58 Bohr mag/cell

     iteration # 60     ecut=    35.00 Ry     beta= 0.10
     Davidson diagonalization with overlap
     ethr =  3.49E-08,  avg # of iterations =  2.0

     negative rho (up, down):  4.678E-03 5.025E-03

     total cpu time spent up to now is     3969.4 secs

     total energy              =    -648.98158159 Ry
     estimated scf accuracy    <       0.00009397 Ry

     total magnetization       =     0.26 Bohr mag/cell
     absolute magnetization    =     1.59 Bohr mag/cell

     iteration # 61     ecut=    35.00 Ry     beta= 0.10
     Davidson diagonalization with overlap
     ethr =  3.49E-08,  avg # of iterations =  1.1

     negative rho (up, down):  4.181E-03 3.211E-03

     total cpu time spent up to now is     4026.1 secs

     total energy              =    -648.98173420 Ry
     estimated scf accuracy    <       0.00010113 Ry

     total magnetization       =     0.25 Bohr mag/cell
     absolute magnetization    =     1.56 Bohr mag/cell

     iteration # 62     ecut=    35.00 Ry     beta= 0.10
     Davidson diagonalization with overlap
     ethr =  3.49E-08,  avg # of iterations =  2.3

     negative rho (up, down):  3.844E-03 4.229E-03

     total cpu time spent up to now is     4097.6 secs

     total energy              =    -648.98174640 Ry
     estimated scf accuracy    <       0.00011471 Ry

     total magnetization       =     0.26 Bohr mag/cell
     absolute magnetization    =     1.63 Bohr mag/cell

     iteration # 63     ecut=    35.00 Ry     beta= 0.10
     Davidson diagonalization with overlap
     ethr =  3.49E-08,  avg # of iterations =  2.0

     negative rho (up, down):  4.473E-03 5.421E-03

     total cpu time spent up to now is     4160.9 secs

     total energy              =    -648.98158983 Ry
     estimated scf accuracy    <       0.00009935 Ry

     total magnetization       =     0.25 Bohr mag/cell
     absolute magnetization    =     1.65 Bohr mag/cell

     iteration # 64     ecut=    35.00 Ry     beta= 0.10
     Davidson diagonalization with overlap
     ethr =  3.49E-08,  avg # of iterations =  2.0

     negative rho (up, down):  4.274E-03 4.459E-03

     total cpu time spent up to now is     4225.0 secs

     total energy              =    -648.98171579 Ry
     estimated scf accuracy    <       0.00010603 Ry

     total magnetization       =     0.26 Bohr mag/cell
     absolute magnetization    =     1.62 Bohr mag/cell

     iteration # 65     ecut=    35.00 Ry     beta= 0.10
     Davidson diagonalization with overlap
     ethr =  3.49E-08,  avg # of iterations =  1.6

     negative rho (up, down):  3.491E-03 2.816E-03

     total cpu time spent up to now is     4284.0 secs

     total energy              =    -648.98182483 Ry
     estimated scf accuracy    <       0.00009975 Ry

     total magnetization       =     0.25 Bohr mag/cell
     absolute magnetization    =     1.65 Bohr mag/cell

     iteration # 66     ecut=    35.00 Ry     beta= 0.10
     Davidson diagonalization with overlap
     ethr =  3.49E-08,  avg # of iterations =  2.3

     negative rho (up, down):  3.598E-03 3.087E-03

     total cpu time spent up to now is     4352.6 secs

     total energy              =    -648.98182476 Ry
     estimated scf accuracy    <       0.00008508 Ry

     total magnetization       =     0.24 Bohr mag/cell
     absolute magnetization    =     1.67 Bohr mag/cell

     iteration # 67     ecut=    35.00 Ry     beta= 0.10
     Davidson diagonalization with overlap
     ethr =  3.49E-08,  avg # of iterations =  1.0

     negative rho (up, down):  2.521E-03 2.655E-03

     total cpu time spent up to now is     4408.2 secs

     total energy              =    -648.98189129 Ry
     estimated scf accuracy    <       0.00008677 Ry

     total magnetization       =     0.24 Bohr mag/cell
     absolute magnetization    =     1.67 Bohr mag/cell

     iteration # 68     ecut=    35.00 Ry     beta= 0.10
     Davidson diagonalization with overlap
     ethr =  3.49E-08,  avg # of iterations =  3.5

     negative rho (up, down):  3.216E-03 2.132E-03

     total cpu time spent up to now is     4490.8 secs

     total energy              =    -648.98190446 Ry
     estimated scf accuracy    <       0.00010148 Ry

     total magnetization       =     0.23 Bohr mag/cell
     absolute magnetization    =     1.70 Bohr mag/cell

     iteration # 69     ecut=    35.00 Ry     beta= 0.10
     Davidson diagonalization with overlap
     ethr =  3.49E-08,  avg # of iterations =  2.3

     negative rho (up, down):  3.226E-03 2.086E-03

     total cpu time spent up to now is     4559.5 secs

     total energy              =    -648.98196210 Ry
     estimated scf accuracy    <       0.00009322 Ry

     total magnetization       =     0.23 Bohr mag/cell
     absolute magnetization    =     1.71 Bohr mag/cell

     iteration # 70     ecut=    35.00 Ry     beta= 0.10
     Davidson diagonalization with overlap
     ethr =  3.49E-08,  avg # of iterations =  3.0

     negative rho (up, down):  2.758E-03 1.911E-03

     total cpu time spent up to now is     4626.5 secs

     total energy              =    -648.98203627 Ry
     estimated scf accuracy    <       0.00009549 Ry

     total magnetization       =     0.20 Bohr mag/cell
     absolute magnetization    =     1.78 Bohr mag/cell

     iteration # 71     ecut=    35.00 Ry     beta= 0.10
     Davidson diagonalization with overlap
     ethr =  3.49E-08,  avg # of iterations =  2.0

     negative rho (up, down):  3.310E-03 2.144E-03

     total cpu time spent up to now is     4682.3 secs

     total energy              =    -648.98198946 Ry
     estimated scf accuracy    <       0.00010203 Ry

     total magnetization       =     0.21 Bohr mag/cell
     absolute magnetization    =     1.77 Bohr mag/cell

     iteration # 72     ecut=    35.00 Ry     beta= 0.10
     Davidson diagonalization with overlap
     ethr =  3.49E-08,  avg # of iterations =  2.0

     negative rho (up, down):  2.763E-03 2.077E-03

     total cpu time spent up to now is     4725.5 secs

     total energy              =    -648.98206082 Ry
     estimated scf accuracy    <       0.00010212 Ry

     total magnetization       =     0.22 Bohr mag/cell
     absolute magnetization    =     1.75 Bohr mag/cell

     iteration # 73     ecut=    35.00 Ry     beta= 0.10
     Davidson diagonalization with overlap
     ethr =  3.49E-08,  avg # of iterations =  3.5

     negative rho (up, down):  2.657E-03 1.891E-03

     total cpu time spent up to now is     4788.8 secs

     total energy              =    -648.98213169 Ry
     estimated scf accuracy    <       0.00010535 Ry

     total magnetization       =     0.19 Bohr mag/cell
     absolute magnetization    =     1.83 Bohr mag/cell

     iteration # 74     ecut=    35.00 Ry     beta= 0.10
     Davidson diagonalization with overlap
     ethr =  3.49E-08,  avg # of iterations =  1.9

     negative rho (up, down):  2.781E-03 2.091E-03

     total cpu time spent up to now is     4848.5 secs

     total energy              =    -648.98213181 Ry
     estimated scf accuracy    <       0.00011525 Ry

     total magnetization       =     0.20 Bohr mag/cell
     absolute magnetization    =     1.81 Bohr mag/cell

     iteration # 75     ecut=    35.00 Ry     beta= 0.10
     Davidson diagonalization with overlap
     ethr =  3.49E-08,  avg # of iterations =  1.4

     negative rho (up, down):  2.846E-03 2.376E-03

     total cpu time spent up to now is     4906.9 secs

     total energy              =    -648.98213431 Ry
     estimated scf accuracy    <       0.00011800 Ry

     total magnetization       =     0.20 Bohr mag/cell
     absolute magnetization    =     1.81 Bohr mag/cell

     iteration # 76     ecut=    35.00 Ry     beta= 0.10
     Davidson diagonalization with overlap
     ethr =  3.49E-08,  avg # of iterations =  2.0

     negative rho (up, down):  3.024E-03 2.432E-03

     total cpu time spent up to now is     4975.3 secs

     total energy              =    -648.98216743 Ry
     estimated scf accuracy    <       0.00011180 Ry

     total magnetization       =     0.19 Bohr mag/cell
     absolute magnetization    =     1.85 Bohr mag/cell

     iteration # 77     ecut=    35.00 Ry     beta= 0.10
     Davidson diagonalization with overlap
     ethr =  3.49E-08,  avg # of iterations =  2.9

     negative rho (up, down):  3.290E-03 2.763E-03

     total cpu time spent up to now is     5055.6 secs

     total energy              =    -648.98214403 Ry
     estimated scf accuracy    <       0.00012731 Ry

     total magnetization       =     0.19 Bohr mag/cell
     absolute magnetization    =     1.89 Bohr mag/cell

     iteration # 78     ecut=    35.00 Ry     beta= 0.10
     Davidson diagonalization with overlap
     ethr =  3.49E-08,  avg # of iterations =  2.5

     negative rho (up, down):  4.427E-03 4.055E-03

     total cpu time spent up to now is     5137.4 secs

     total energy              =    -648.98212165 Ry
     estimated scf accuracy    <       0.00012383 Ry

     total magnetization       =     0.19 Bohr mag/cell
     absolute magnetization    =     1.87 Bohr mag/cell

     iteration # 79     ecut=    35.00 Ry     beta= 0.10
     Davidson diagonalization with overlap
     ethr =  3.49E-08,  avg # of iterations =  2.1

     negative rho (up, down):  4.267E-03 4.532E-03

     total cpu time spent up to now is     5216.2 secs

     total energy              =    -648.98190455 Ry
     estimated scf accuracy    <       0.00012842 Ry

     total magnetization       =     0.18 Bohr mag/cell
     absolute magnetization    =     1.89 Bohr mag/cell

     iteration # 80     ecut=    35.00 Ry     beta= 0.10
     Davidson diagonalization with overlap
     ethr =  3.49E-08,  avg # of iterations =  3.5

     negative rho (up, down):  4.483E-03 5.839E-03

     total cpu time spent up to now is     5299.6 secs

     total energy              =    -648.98193532 Ry
     estimated scf accuracy    <       0.00011380 Ry

     total magnetization       =     0.20 Bohr mag/cell
     absolute magnetization    =     1.81 Bohr mag/cell

     iteration # 81     ecut=    35.00 Ry     beta= 0.10
     Davidson diagonalization with overlap
     ethr =  3.49E-08,  avg # of iterations =  2.4

     negative rho (up, down):  3.321E-03 3.580E-03

     total cpu time spent up to now is     5381.1 secs

     total energy              =    -648.98214123 Ry
     estimated scf accuracy    <       0.00012747 Ry

     total magnetization       =     0.19 Bohr mag/cell
     absolute magnetization    =     1.85 Bohr mag/cell

     iteration # 82     ecut=    35.00 Ry     beta= 0.10
     Davidson diagonalization with overlap
     ethr =  3.49E-08,  avg # of iterations =  2.7

     negative rho (up, down):  3.760E-03 3.668E-03

     total cpu time spent up to now is     5461.1 secs

     total energy              =    -648.98185035 Ry
     estimated scf accuracy    <       0.00011396 Ry

     total magnetization       =     0.18 Bohr mag/cell
     absolute magnetization    =     1.89 Bohr mag/cell

     iteration # 83     ecut=    35.00 Ry     beta= 0.10
     Davidson diagonalization with overlap
     ethr =  3.49E-08,  avg # of iterations =  3.5

     negative rho (up, down):  3.822E-03 4.052E-03

     total cpu time spent up to now is     5543.8 secs

     total energy              =    -648.98193174 Ry
     estimated scf accuracy    <       0.00011483 Ry

     total magnetization       =     0.20 Bohr mag/cell
     absolute magnetization    =     1.80 Bohr mag/cell

     iteration # 84     ecut=    35.00 Ry     beta= 0.10
     Davidson diagonalization with overlap
     ethr =  3.49E-08,  avg # of iterations =  1.5

     negative rho (up, down):  5.473E-03 8.021E-03

     total cpu time spent up to now is     5606.4 secs

     total energy              =    -648.98155900 Ry
     estimated scf accuracy    <       0.00010702 Ry

     total magnetization       =     0.20 Bohr mag/cell
     absolute magnetization    =     1.82 Bohr mag/cell

     iteration # 85     ecut=    35.00 Ry     beta= 0.10
     Davidson diagonalization with overlap
     ethr =  3.49E-08,  avg # of iterations =  3.1

     negative rho (up, down):  5.009E-03 6.504E-03

     total cpu time spent up to now is     5692.8 secs

     total energy              =    -648.98181557 Ry
     estimated scf accuracy    <       0.00011116 Ry

     total magnetization       =     0.19 Bohr mag/cell
     absolute magnetization    =     1.81 Bohr mag/cell

     iteration # 86     ecut=    35.00 Ry     beta= 0.10
     Davidson diagonalization with overlap
     ethr =  3.49E-08,  avg # of iterations =  2.0

     negative rho (up, down):  5.009E-03 5.418E-03

     total cpu time spent up to now is     5760.8 secs

     total energy              =    -648.98166662 Ry
     estimated scf accuracy    <       0.00010846 Ry

     total magnetization       =     0.19 Bohr mag/cell
     absolute magnetization    =     1.81 Bohr mag/cell

     iteration # 87     ecut=    35.00 Ry     beta= 0.10
     Davidson diagonalization with overlap
     ethr =  3.49E-08,  avg # of iterations =  2.5

     negative rho (up, down):  4.489E-03 5.390E-03

     total cpu time spent up to now is     5842.9 secs

     total energy              =    -648.98171309 Ry
     estimated scf accuracy    <       0.00010729 Ry

     total magnetization       =     0.20 Bohr mag/cell
     absolute magnetization    =     1.81 Bohr mag/cell

     iteration # 88     ecut=    35.00 Ry     beta= 0.10
     Davidson diagonalization with overlap
     ethr =  3.49E-08,  avg # of iterations =  3.7

     negative rho (up, down):  4.782E-03 5.111E-03

     total cpu time spent up to now is     5921.1 secs

     total energy              =    -648.98169651 Ry
     estimated scf accuracy    <       0.00008408 Ry

     total magnetization       =     0.19 Bohr mag/cell
     absolute magnetization    =     1.90 Bohr mag/cell

     iteration # 89     ecut=    35.00 Ry     beta= 0.10
     Davidson diagonalization with overlap
     ethr =  3.49E-08,  avg # of iterations =  2.0

     negative rho (up, down):  5.386E-03 4.687E-03

     total cpu time spent up to now is     5997.1 secs

     total energy              =    -648.98168555 Ry
     estimated scf accuracy    <       0.00008438 Ry

     total magnetization       =     0.19 Bohr mag/cell
     absolute magnetization    =     1.93 Bohr mag/cell

     iteration # 90     ecut=    35.00 Ry     beta= 0.10
     Davidson diagonalization with overlap
     ethr =  3.49E-08,  avg # of iterations =  4.0

     negative rho (up, down):  5.111E-03 4.129E-03

     total cpu time spent up to now is     6079.4 secs

     total energy              =    -648.98187975 Ry
     estimated scf accuracy    <       0.00006981 Ry

     total magnetization       =     0.19 Bohr mag/cell
     absolute magnetization    =     2.02 Bohr mag/cell

     iteration # 91     ecut=    35.00 Ry     beta= 0.10
     Davidson diagonalization with overlap
     ethr =  3.36E-08,  avg # of iterations =  2.1

     negative rho (up, down):  5.286E-03 3.882E-03

     total cpu time spent up to now is     6150.1 secs

     total energy              =    -648.98195239 Ry
     estimated scf accuracy    <       0.00006261 Ry

     total magnetization       =     0.19 Bohr mag/cell
     absolute magnetization    =     2.07 Bohr mag/cell

     iteration # 92     ecut=    35.00 Ry     beta= 0.10
     Davidson diagonalization with overlap
     ethr =  3.01E-08,  avg # of iterations =  4.0

     negative rho (up, down):  9.518E-03 7.663E-03

     total cpu time spent up to now is     6232.9 secs

     total energy              =    -648.98117710 Ry
     estimated scf accuracy    <       0.00005091 Ry

     total magnetization       =     0.19 Bohr mag/cell
     absolute magnetization    =     2.16 Bohr mag/cell

     iteration # 93     ecut=    35.00 Ry     beta= 0.10
     Davidson diagonalization with overlap
     ethr =  2.45E-08,  avg # of iterations =  5.3

     negative rho (up, down):  5.505E-03 4.029E-03

     total cpu time spent up to now is     6339.1 secs

     total energy              =    -648.98200574 Ry
     estimated scf accuracy    <       0.00009795 Ry

     total magnetization       =     0.15 Bohr mag/cell
     absolute magnetization    =     2.37 Bohr mag/cell

     iteration # 94     ecut=    35.00 Ry     beta= 0.10
     Davidson diagonalization with overlap
     ethr =  2.45E-08,  avg # of iterations =  4.0

     negative rho (up, down):  4.140E-03 3.146E-03

     total cpu time spent up to now is     6423.4 secs

     total energy              =    -648.98216427 Ry
     estimated scf accuracy    <       0.00003965 Ry

     total magnetization       =     0.17 Bohr mag/cell
     absolute magnetization    =     2.31 Bohr mag/cell

     iteration # 95     ecut=    35.00 Ry     beta= 0.10
     Davidson diagonalization with overlap
     ethr =  1.91E-08,  avg # of iterations =  2.6

     negative rho (up, down):  3.971E-03 2.968E-03

     total cpu time spent up to now is     6498.7 secs

     total energy              =    -648.98222589 Ry
     estimated scf accuracy    <       0.00003556 Ry

     total magnetization       =     0.18 Bohr mag/cell
     absolute magnetization    =     2.28 Bohr mag/cell

     iteration # 96     ecut=    35.00 Ry     beta= 0.10
     Davidson diagonalization with overlap
     ethr =  1.71E-08,  avg # of iterations =  2.0

     negative rho (up, down):  3.679E-03 2.754E-03

     total cpu time spent up to now is     6564.0 secs

     total energy              =    -648.98230811 Ry
     estimated scf accuracy    <       0.00002894 Ry

     total magnetization       =     0.18 Bohr mag/cell
     absolute magnetization    =     2.32 Bohr mag/cell

     iteration # 97     ecut=    35.00 Ry     beta= 0.10
     Davidson diagonalization with overlap
     ethr =  1.39E-08,  avg # of iterations =  2.0

     negative rho (up, down):  3.493E-03 2.592E-03

     total cpu time spent up to now is     6634.2 secs

     total energy              =    -648.98236635 Ry
     estimated scf accuracy    <       0.00002579 Ry

     total magnetization       =     0.18 Bohr mag/cell
     absolute magnetization    =     2.33 Bohr mag/cell

     iteration # 98     ecut=    35.00 Ry     beta= 0.10
     Davidson diagonalization with overlap
     ethr =  1.24E-08,  avg # of iterations =  3.2

     negative rho (up, down):  3.383E-03 2.495E-03

     total cpu time spent up to now is     6705.6 secs

     total energy              =    -648.98239133 Ry
     estimated scf accuracy    <       0.00002462 Ry

     total magnetization       =     0.18 Bohr mag/cell
     absolute magnetization    =     2.36 Bohr mag/cell

     iteration # 99     ecut=    35.00 Ry     beta= 0.10
     Davidson diagonalization with overlap
     ethr =  1.18E-08,  avg # of iterations =  1.0

     negative rho (up, down):  3.284E-03 2.406E-03

     total cpu time spent up to now is     6764.5 secs

     total energy              =    -648.98245199 Ry
     estimated scf accuracy    <       0.00002589 Ry

     total magnetization       =     0.18 Bohr mag/cell
     absolute magnetization    =     2.36 Bohr mag/cell

     iteration #100     ecut=    35.00 Ry     beta= 0.10
     Davidson diagonalization with overlap
     ethr =  1.18E-08,  avg # of iterations =  2.5

     negative rho (up, down):  3.171E-03 2.286E-03

     total cpu time spent up to now is     6839.9 secs

     total energy              =    -648.98248368 Ry
     estimated scf accuracy    <       0.00002655 Ry

     total magnetization       =     0.17 Bohr mag/cell
     absolute magnetization    =     2.38 Bohr mag/cell

     iteration #101     ecut=    35.00 Ry     beta= 0.10
     Davidson diagonalization with overlap
     ethr =  1.18E-08,  avg # of iterations =  1.7

     negative rho (up, down):  3.086E-03 2.253E-03

     total cpu time spent up to now is     6902.5 secs

     total energy              =    -648.98244936 Ry
     estimated scf accuracy    <       0.00002819 Ry

     total magnetization       =     0.17 Bohr mag/cell
     absolute magnetization    =     2.39 Bohr mag/cell

     iteration #102     ecut=    35.00 Ry     beta= 0.10
     Davidson diagonalization with overlap
     ethr =  1.18E-08,  avg # of iterations =  2.6

     negative rho (up, down):  3.056E-03 2.252E-03

     total cpu time spent up to now is     6975.1 secs

     total energy              =    -648.98246749 Ry
     estimated scf accuracy    <       0.00003058 Ry

     total magnetization       =     0.18 Bohr mag/cell
     absolute magnetization    =     2.35 Bohr mag/cell

     iteration #103     ecut=    35.00 Ry     beta= 0.10
     Davidson diagonalization with overlap
     ethr =  1.18E-08,  avg # of iterations =  1.0

     negative rho (up, down):  3.125E-03 2.569E-03

     total cpu time spent up to now is     7034.3 secs

     total energy              =    -648.98244696 Ry
     estimated scf accuracy    <       0.00003086 Ry

     total magnetization       =     0.18 Bohr mag/cell
     absolute magnetization    =     2.35 Bohr mag/cell

     iteration #104     ecut=    35.00 Ry     beta= 0.10
     Davidson diagonalization with overlap
     ethr =  1.18E-08,  avg # of iterations =  2.6

     negative rho (up, down):  3.141E-03 2.550E-03

     total cpu time spent up to now is     7111.3 secs

     total energy              =    -648.98247654 Ry
     estimated scf accuracy    <       0.00003503 Ry

     total magnetization       =     0.18 Bohr mag/cell
     absolute magnetization    =     2.32 Bohr mag/cell

     iteration #105     ecut=    35.00 Ry     beta= 0.10
     Davidson diagonalization with overlap
     ethr =  1.18E-08,  avg # of iterations =  2.0

     negative rho (up, down):  3.188E-03 2.639E-03

     total cpu time spent up to now is     7177.8 secs

     total energy              =    -648.98247734 Ry
     estimated scf accuracy    <       0.00003758 Ry

     total magnetization       =     0.18 Bohr mag/cell
     absolute magnetization    =     2.31 Bohr mag/cell

     iteration #106     ecut=    35.00 Ry     beta= 0.10
     Davidson diagonalization with overlap
     ethr =  1.18E-08,  avg # of iterations =  1.0

     negative rho (up, down):  3.205E-03 2.423E-03

     total cpu time spent up to now is     7236.9 secs

     total energy              =    -648.98248895 Ry
     estimated scf accuracy    <       0.00003750 Ry

     total magnetization       =     0.18 Bohr mag/cell
     absolute magnetization    =     2.31 Bohr mag/cell

     iteration #107     ecut=    35.00 Ry     beta= 0.10
     Davidson diagonalization with overlap
     ethr =  1.18E-08,  avg # of iterations =  2.5

     negative rho (up, down):  3.074E-03 2.460E-03

     total cpu time spent up to now is     7304.3 secs

     total energy              =    -648.98244830 Ry
     estimated scf accuracy    <       0.00003537 Ry

     total magnetization       =     0.17 Bohr mag/cell
     absolute magnetization    =     2.34 Bohr mag/cell

     iteration #108     ecut=    35.00 Ry     beta= 0.10
     Davidson diagonalization with overlap
     ethr =  1.18E-08,  avg # of iterations =  3.3

     negative rho (up, down):  3.050E-03 2.386E-03

     total cpu time spent up to now is     7386.2 secs

     total energy              =    -648.98247339 Ry
     estimated scf accuracy    <       0.00003428 Ry

     total magnetization       =     0.17 Bohr mag/cell
     absolute magnetization    =     2.38 Bohr mag/cell

     iteration #109     ecut=    35.00 Ry     beta= 0.10
     Davidson diagonalization with overlap
     ethr =  1.18E-08,  avg # of iterations =  1.6

     negative rho (up, down):  3.590E-03 3.203E-03

     total cpu time spent up to now is     7446.1 secs

     total energy              =    -648.98243080 Ry
     estimated scf accuracy    <       0.00003606 Ry

     total magnetization       =     0.17 Bohr mag/cell
     absolute magnetization    =     2.38 Bohr mag/cell

     iteration #110     ecut=    35.00 Ry     beta= 0.10
     Davidson diagonalization with overlap
     ethr =  1.18E-08,  avg # of iterations =  2.7

     negative rho (up, down):  3.562E-03 3.065E-03

     total cpu time spent up to now is     7526.1 secs

     total energy              =    -648.98245030 Ry
     estimated scf accuracy    <       0.00003024 Ry

     total magnetization       =     0.18 Bohr mag/cell
     absolute magnetization    =     2.37 Bohr mag/cell

     iteration #111     ecut=    35.00 Ry     beta= 0.10
     Davidson diagonalization with overlap
     ethr =  1.18E-08,  avg # of iterations =  1.0

     negative rho (up, down):  3.154E-03 2.434E-03

     total cpu time spent up to now is     7583.6 secs

     total energy              =    -648.98246228 Ry
     estimated scf accuracy    <       0.00002941 Ry

     total magnetization       =     0.18 Bohr mag/cell
     absolute magnetization    =     2.38 Bohr mag/cell

     iteration #112     ecut=    35.00 Ry     beta= 0.10
     Davidson diagonalization with overlap
     ethr =  1.18E-08,  avg # of iterations =  2.6

     negative rho (up, down):  3.558E-03 2.991E-03

     total cpu time spent up to now is     7658.8 secs

     total energy              =    -648.98241658 Ry
     estimated scf accuracy    <       0.00002914 Ry

     total magnetization       =     0.17 Bohr mag/cell
     absolute magnetization    =     2.40 Bohr mag/cell

     iteration #113     ecut=    35.00 Ry     beta= 0.10
     Davidson diagonalization with overlap
     ethr =  1.18E-08,  avg # of iterations =  2.0

     negative rho (up, down):  3.576E-03 2.876E-03

     total cpu time spent up to now is     7729.9 secs

     total energy              =    -648.98245985 Ry
     estimated scf accuracy    <       0.00002816 Ry

     total magnetization       =     0.17 Bohr mag/cell
     absolute magnetization    =     2.40 Bohr mag/cell

     iteration #114     ecut=    35.00 Ry     beta= 0.10
     Davidson diagonalization with overlap
     ethr =  1.18E-08,  avg # of iterations =  2.0

     negative rho (up, down):  3.804E-03 3.278E-03

     total cpu time spent up to now is     7798.9 secs

     total energy              =    -648.98239554 Ry
     estimated scf accuracy    <       0.00002859 Ry

     total magnetization       =     0.17 Bohr mag/cell
     absolute magnetization    =     2.40 Bohr mag/cell

     iteration #115     ecut=    35.00 Ry     beta= 0.10
     Davidson diagonalization with overlap
     ethr =  1.18E-08,  avg # of iterations =  2.0

     negative rho (up, down):  4.246E-03 3.855E-03

     total cpu time spent up to now is     7868.0 secs

     total energy              =    -648.98221717 Ry
     estimated scf accuracy    <       0.00002855 Ry

     total magnetization       =     0.17 Bohr mag/cell
     absolute magnetization    =     2.40 Bohr mag/cell

     iteration #116     ecut=    35.00 Ry     beta= 0.10
     Davidson diagonalization with overlap
     ethr =  1.18E-08,  avg # of iterations =  3.0

     negative rho (up, down):  4.074E-03 3.625E-03

     total cpu time spent up to now is     7951.8 secs

     total energy              =    -648.98228877 Ry
     estimated scf accuracy    <       0.00002516 Ry

     total magnetization       =     0.17 Bohr mag/cell
     absolute magnetization    =     2.39 Bohr mag/cell

     iteration #117     ecut=    35.00 Ry     beta= 0.10
     Davidson diagonalization with overlap
     ethr =  1.18E-08,  avg # of iterations =  2.3

     negative rho (up, down):  4.131E-03 3.608E-03

     total cpu time spent up to now is     8020.0 secs

     total energy              =    -648.98230923 Ry
     estimated scf accuracy    <       0.00002031 Ry

     total magnetization       =     0.17 Bohr mag/cell
     absolute magnetization    =     2.42 Bohr mag/cell

     iteration #118     ecut=    35.00 Ry     beta= 0.10
     Davidson diagonalization with overlap
     ethr =  9.76E-09,  avg # of iterations =  2.2

     negative rho (up, down):  4.125E-03 3.347E-03

     total cpu time spent up to now is     8085.7 secs

     total energy              =    -648.98232786 Ry
     estimated scf accuracy    <       0.00001882 Ry

     total magnetization       =     0.17 Bohr mag/cell
     absolute magnetization    =     2.44 Bohr mag/cell

     iteration #119     ecut=    35.00 Ry     beta= 0.10
     Davidson diagonalization with overlap
     ethr =  9.05E-09,  avg # of iterations =  4.0

     negative rho (up, down):  4.431E-03 3.784E-03

     total cpu time spent up to now is     8164.0 secs

     total energy              =    -648.98227341 Ry
     estimated scf accuracy    <       0.00001494 Ry

     total magnetization       =     0.16 Bohr mag/cell
     absolute magnetization    =     2.48 Bohr mag/cell

     iteration #120     ecut=    35.00 Ry     beta= 0.10
     Davidson diagonalization with overlap
     ethr =  7.18E-09,  avg # of iterations =  2.4

     negative rho (up, down):  4.375E-03 3.850E-03

     total cpu time spent up to now is     8242.0 secs

     total energy              =    -648.98233200 Ry
     estimated scf accuracy    <       0.00001286 Ry

     total magnetization       =     0.16 Bohr mag/cell
     absolute magnetization    =     2.49 Bohr mag/cell

     iteration #121     ecut=    35.00 Ry     beta= 0.10
     Davidson diagonalization with overlap
     ethr =  6.18E-09,  avg # of iterations =  2.1

     negative rho (up, down):  4.152E-03 3.594E-03

     total cpu time spent up to now is     8321.9 secs

     total energy              =    -648.98235489 Ry
     estimated scf accuracy    <       0.00001173 Ry

     total magnetization       =     0.16 Bohr mag/cell
     absolute magnetization    =     2.49 Bohr mag/cell

     iteration #122     ecut=    35.00 Ry     beta= 0.10
     Davidson diagonalization with overlap
     ethr =  5.64E-09,  avg # of iterations =  2.0

     negative rho (up, down):  4.487E-03 3.950E-03

     total cpu time spent up to now is     8387.5 secs

     total energy              =    -648.98232238 Ry
     estimated scf accuracy    <       0.00001203 Ry

     total magnetization       =     0.16 Bohr mag/cell
     absolute magnetization    =     2.48 Bohr mag/cell

     iteration #123     ecut=    35.00 Ry     beta= 0.10
     Davidson diagonalization with overlap
     ethr =  5.64E-09,  avg # of iterations =  2.0

     negative rho (up, down):  5.026E-03 4.556E-03

     total cpu time spent up to now is     8465.3 secs

     total energy              =    -648.98229254 Ry
     estimated scf accuracy    <       0.00001187 Ry

     total magnetization       =     0.16 Bohr mag/cell
     absolute magnetization    =     2.49 Bohr mag/cell

     iteration #124     ecut=    35.00 Ry     beta= 0.10
     Davidson diagonalization with overlap
     ethr =  5.64E-09,  avg # of iterations =  3.0

     negative rho (up, down):  4.657E-03 4.063E-03

     total cpu time spent up to now is     8546.5 secs

     total energy              =    -648.98233027 Ry
     estimated scf accuracy    <       0.00001104 Ry

     total magnetization       =     0.16 Bohr mag/cell
     absolute magnetization    =     2.49 Bohr mag/cell

     iteration #125     ecut=    35.00 Ry     beta= 0.10
     Davidson diagonalization with overlap
     ethr =  5.31E-09,  avg # of iterations =  1.8

     negative rho (up, down):  3.683E-03 2.808E-03

     total cpu time spent up to now is     8608.7 secs

     total energy              =    -648.98238316 Ry
     estimated scf accuracy    <       0.00001093 Ry

     total magnetization       =     0.16 Bohr mag/cell
     absolute magnetization    =     2.48 Bohr mag/cell

     iteration #126     ecut=    35.00 Ry     beta= 0.10
     Davidson diagonalization with overlap
     ethr =  5.26E-09,  avg # of iterations =  3.6

     negative rho (up, down):  3.545E-03 2.621E-03

     total cpu time spent up to now is     8694.5 secs

     total energy              =    -648.98240811 Ry
     estimated scf accuracy    <       0.00000936 Ry

     total magnetization       =     0.16 Bohr mag/cell
     absolute magnetization    =     2.46 Bohr mag/cell

     iteration #127     ecut=    35.00 Ry     beta= 0.10
     Davidson diagonalization with overlap
     ethr =  4.50E-09,  avg # of iterations =  2.0

     negative rho (up, down):  3.750E-03 2.937E-03

     total cpu time spent up to now is     8761.1 secs

     total energy              =    -648.98234942 Ry
     estimated scf accuracy    <       0.00000878 Ry

     total magnetization       =     0.16 Bohr mag/cell
     absolute magnetization    =     2.47 Bohr mag/cell

     iteration #128     ecut=    35.00 Ry     beta= 0.10
     Davidson diagonalization with overlap
     ethr =  4.22E-09,  avg # of iterations =  3.2

     negative rho (up, down):  3.831E-03 3.198E-03

     total cpu time spent up to now is     8842.4 secs

     total energy              =    -648.98234853 Ry
     estimated scf accuracy    <       0.00000522 Ry

     total magnetization       =     0.16 Bohr mag/cell
     absolute magnetization    =     2.48 Bohr mag/cell

     iteration #129     ecut=    35.00 Ry     beta= 0.10
     Davidson diagonalization with overlap
     ethr =  2.51E-09,  avg # of iterations =  2.9

     negative rho (up, down):  3.577E-03 2.888E-03

     total cpu time spent up to now is     8921.2 secs

     total energy              =    -648.98237266 Ry
     estimated scf accuracy    <       0.00000487 Ry

[...]
     estimated scf accuracy    <       0.00000656 Ry

     total magnetization       =    -0.55 Bohr mag/cell
     absolute magnetization    =     2.66 Bohr mag/cell

     iteration #220     ecut=    35.00 Ry     beta= 0.10
     Davidson diagonalization with overlap
     ethr =  3.21E-10,  avg # of iterations =  5.1

     negative rho (up, down):  3.502E-03 7.105E-03

     total cpu time spent up to now is    52753.3 secs

     total energy              =    -649.02870884 Ry
     estimated scf accuracy    <       0.00000958 Ry

     total magnetization       =    -0.56 Bohr mag/cell
     absolute magnetization    =     2.67 Bohr mag/cell

     iteration #221     ecut=    35.00 Ry     beta= 0.10
     Davidson diagonalization with overlap
     ethr =  3.21E-10,  avg # of iterations =  6.5

     negative rho (up, down):  3.419E-03 7.000E-03

     total cpu time spent up to now is    52813.5 secs

     total energy              =    -649.02875154 Ry
     estimated scf accuracy    <       0.00000358 Ry

     total magnetization       =    -0.53 Bohr mag/cell
     absolute magnetization    =     2.65 Bohr mag/cell

     iteration #222     ecut=    35.00 Ry     beta= 0.10
     Davidson diagonalization with overlap
     ethr =  3.21E-10,  avg # of iterations =  2.0

     negative rho (up, down):  3.157E-03 6.844E-03

     total cpu time spent up to now is    52846.7 secs

     total energy              =    -649.02876794 Ry
     estimated scf accuracy    <       0.00000275 Ry

     total magnetization       =    -0.53 Bohr mag/cell
     absolute magnetization    =     2.65 Bohr mag/cell

     iteration #223     ecut=    35.00 Ry     beta= 0.10
     Davidson diagonalization with overlap
     ethr =  3.21E-10,  avg # of iterations =  3.4

     negative rho (up, down):  3.054E-03 6.782E-03

     total cpu time spent up to now is    52887.6 secs

     total energy              =    -649.02877236 Ry
     estimated scf accuracy    <       0.00000181 Ry

     total magnetization       =    -0.53 Bohr mag/cell
     absolute magnetization    =     2.65 Bohr mag/cell

     iteration #224     ecut=    35.00 Ry     beta= 0.10
     Davidson diagonalization with overlap
     ethr =  3.21E-10,  avg # of iterations =  3.0

     negative rho (up, down):  3.111E-03 6.812E-03

     total cpu time spent up to now is    52928.4 secs

     total energy              =    -649.02876894 Ry
     estimated scf accuracy    <       0.00000120 Ry

     total magnetization       =    -0.53 Bohr mag/cell
     absolute magnetization    =     2.65 Bohr mag/cell

     iteration #225     ecut=    35.00 Ry     beta= 0.10
     Davidson diagonalization with overlap
     ethr =  3.21E-10,  avg # of iterations =  2.7

     negative rho (up, down):  3.134E-03 6.940E-03

     total cpu time spent up to now is    52966.8 secs

     total energy              =    -649.02876405 Ry
     estimated scf accuracy    <       0.00000156 Ry

     total magnetization       =    -0.53 Bohr mag/cell
     absolute magnetization    =     2.65 Bohr mag/cell

     iteration #226     ecut=    35.00 Ry     beta= 0.10
     Davidson diagonalization with overlap
     ethr =  3.21E-10,  avg # of iterations =  5.6

     negative rho (up, down):  3.008E-03 6.787E-03

     total cpu time spent up to now is    53019.1 secs

     total energy              =    -649.02876644 Ry
     estimated scf accuracy    <       0.00000145 Ry

     total magnetization       =    -0.52 Bohr mag/cell
     absolute magnetization    =     2.65 Bohr mag/cell

     iteration #227     ecut=    35.00 Ry     beta= 0.10
     Davidson diagonalization with overlap
     ethr =  3.21E-10,  avg # of iterations =  5.2

     negative rho (up, down):  2.989E-03 6.784E-03

     total cpu time spent up to now is    53069.6 secs

     total energy              =    -649.02877759 Ry
     estimated scf accuracy    <       0.00000108 Ry

     total magnetization       =    -0.53 Bohr mag/cell
     absolute magnetization    =     2.65 Bohr mag/cell

     iteration #228     ecut=    35.00 Ry     beta= 0.10
     Davidson diagonalization with overlap
     ethr =  3.21E-10,  avg # of iterations =  2.0

     negative rho (up, down):  3.882E-03 7.138E-03

     total cpu time spent up to now is    53100.3 secs

     total energy              =    -649.02870769 Ry
     estimated scf accuracy    <       0.00000129 Ry

     total magnetization       =    -0.53 Bohr mag/cell
     absolute magnetization    =     2.65 Bohr mag/cell

     iteration #229     ecut=    35.00 Ry     beta= 0.10
     Davidson diagonalization with overlap
     ethr =  3.21E-10,  avg # of iterations =  5.7

     negative rho (up, down):  8.718E-03 9.562E-03

     total cpu time spent up to now is    53153.4 secs

     total energy              =    -649.02838854 Ry
     estimated scf accuracy    <       0.00000076 Ry

     total magnetization       =    -0.54 Bohr mag/cell
     absolute magnetization    =     2.66 Bohr mag/cell

     iteration #230     ecut=    35.00 Ry     beta= 0.10
     Davidson diagonalization with overlap
     ethr =  3.21E-10,  avg # of iterations =  6.7

     negative rho (up, down):  6.590E-03 8.489E-03

     total cpu time spent up to now is    53218.1 secs

     total energy              =    -649.02858432 Ry
     estimated scf accuracy    <       0.00000214 Ry

     total magnetization       =    -0.58 Bohr mag/cell
     absolute magnetization    =     2.68 Bohr mag/cell

     iteration #231     ecut=    35.00 Ry     beta= 0.10
     Davidson diagonalization with overlap
     ethr =  3.21E-10,  avg # of iterations =  4.9

     negative rho (up, down):  3.099E-03 6.788E-03

     total cpu time spent up to now is    53265.0 secs

     total energy              =    -649.02867796 Ry
     estimated scf accuracy    <       0.00000210 Ry

     total magnetization       =    -0.57 Bohr mag/cell
     absolute magnetization    =     2.68 Bohr mag/cell

     iteration #232     ecut=    35.00 Ry     beta= 0.10
     Davidson diagonalization with overlap
     ethr =  3.21E-10,  avg # of iterations =  6.7

     negative rho (up, down):  3.030E-03 6.751E-03

     total cpu time spent up to now is    53331.8 secs

     total energy              =    -649.02878202 Ry
     estimated scf accuracy    <       0.00000305 Ry

     total magnetization       =    -0.54 Bohr mag/cell
     absolute magnetization    =     2.65 Bohr mag/cell

     iteration #233     ecut=    35.00 Ry     beta= 0.10
     Davidson diagonalization with overlap
     ethr =  3.21E-10,  avg # of iterations =  2.1

     negative rho (up, down):  3.669E-03 7.070E-03

     total cpu time spent up to now is    53368.3 secs

     total energy              =    -649.02870049 Ry
     estimated scf accuracy    <       0.00000243 Ry

     total magnetization       =    -0.54 Bohr mag/cell
     absolute magnetization    =     2.65 Bohr mag/cell

     iteration #234     ecut=    35.00 Ry     beta= 0.10
     Davidson diagonalization with overlap
     ethr =  3.21E-10,  avg # of iterations =  5.7

     negative rho (up, down):  3.086E-03 6.764E-03

     total cpu time spent up to now is    53424.6 secs

     total energy              =    -649.02876274 Ry
     estimated scf accuracy    <       0.00000145 Ry

     total magnetization       =    -0.55 Bohr mag/cell
     absolute magnetization    =     2.67 Bohr mag/cell

     iteration #235     ecut=    35.00 Ry     beta= 0.10
     Davidson diagonalization with overlap
     ethr =  3.21E-10,  avg # of iterations =  4.7

     negative rho (up, down):  3.765E-03 7.112E-03

     total cpu time spent up to now is    53470.4 secs

     total energy              =    -649.02872302 Ry
     estimated scf accuracy    <       0.00000284 Ry

     total magnetization       =    -0.55 Bohr mag/cell
     absolute magnetization    =     2.66 Bohr mag/cell

     iteration #236     ecut=    35.00 Ry     beta= 0.10
     Davidson diagonalization with overlap
     ethr =  3.21E-10,  avg # of iterations =  5.0

     negative rho (up, down):  3.962E-03 7.214E-03

     total cpu time spent up to now is    53519.5 secs

     total energy              =    -649.02872074 Ry
     estimated scf accuracy    <       0.00000134 Ry

     total magnetization       =    -0.56 Bohr mag/cell
     absolute magnetization    =     2.67 Bohr mag/cell

     iteration #237     ecut=    35.00 Ry     beta= 0.10
     Davidson diagonalization with overlap
     ethr =  3.21E-10,  avg # of iterations =  3.3

     negative rho (up, down):  4.770E-03 7.677E-03

     total cpu time spent up to now is    53559.3 secs

     total energy              =    -649.02867462 Ry
     estimated scf accuracy    <       0.00000138 Ry

     total magnetization       =    -0.56 Bohr mag/cell
     absolute magnetization    =     2.67 Bohr mag/cell

     iteration #238     ecut=    35.00 Ry     beta= 0.10
     Davidson diagonalization with overlap
     ethr =  3.21E-10,  avg # of iterations =  5.0

     negative rho (up, down):  5.291E-03 7.925E-03

     total cpu time spent up to now is    53606.8 secs

     total energy              =    -649.02864785 Ry
     estimated scf accuracy    <       0.00000148 Ry

     total magnetization       =    -0.57 Bohr mag/cell
     absolute magnetization    =     2.67 Bohr mag/cell

     iteration #239     ecut=    35.00 Ry     beta= 0.10
     Davidson diagonalization with overlap
     ethr =  3.21E-10,  avg # of iterations =  4.7

     negative rho (up, down):  7.226E-03 8.871E-03

     total cpu time spent up to now is    53652.9 secs

     total energy              =    -649.02854517 Ry
     estimated scf accuracy    <       0.00000128 Ry

     total magnetization       =    -0.58 Bohr mag/cell
     absolute magnetization    =     2.68 Bohr mag/cell

     iteration #240     ecut=    35.00 Ry     beta= 0.10
     Davidson diagonalization with overlap
     ethr =  3.21E-10,  avg # of iterations =  5.6

     negative rho (up, down):  3.185E-03 6.669E-03

     total cpu time spent up to now is    53705.9 secs

     total energy              =    -649.02871527 Ry
     estimated scf accuracy    <       0.00000147 Ry

     total magnetization       =    -0.59 Bohr mag/cell
     absolute magnetization    =     2.69 Bohr mag/cell

     iteration #241     ecut=    35.00 Ry     beta= 0.10
     Davidson diagonalization with overlap
     ethr =  3.21E-10,  avg # of iterations =  6.6

     negative rho (up, down):  5.786E-03 8.159E-03

     total cpu time spent up to now is    53766.6 secs

     total energy              =    -649.02859532 Ry
     estimated scf accuracy    <       0.00000116 Ry

     total magnetization       =    -0.57 Bohr mag/cell
     absolute magnetization    =     2.67 Bohr mag/cell

     iteration #242     ecut=    35.00 Ry     beta= 0.10
     Davidson diagonalization with overlap
     ethr =  3.21E-10,  avg # of iterations =  6.2

     negative rho (up, down):  5.531E-03 8.160E-03

     total cpu time spent up to now is    53825.4 secs

     total energy              =    -649.02864146 Ry
     estimated scf accuracy    <       0.00000114 Ry

     total magnetization       =    -0.59 Bohr mag/cell
     absolute magnetization    =     2.68 Bohr mag/cell

     iteration #243     ecut=    35.00 Ry     beta= 0.10
     Davidson diagonalization with overlap
     ethr =  3.21E-10,  avg # of iterations =  3.3

     negative rho (up, down):  3.916E-03 7.182E-03

     total cpu time spent up to now is    53866.6 secs

     total energy              =    -649.02871404 Ry
     estimated scf accuracy    <       0.00000225 Ry

     total magnetization       =    -0.58 Bohr mag/cell
     absolute magnetization    =     2.68 Bohr mag/cell

     iteration #244     ecut=    35.00 Ry     beta= 0.10
     Davidson diagonalization with overlap
     ethr =  3.21E-10,  avg # of iterations =  5.0

     negative rho (up, down):  4.898E-03 7.757E-03

     total cpu time spent up to now is    53916.7 secs

     total energy              =    -649.02866520 Ry
     estimated scf accuracy    <       0.00000268 Ry

     total magnetization       =    -0.58 Bohr mag/cell
     absolute magnetization    =     2.68 Bohr mag/cell

     iteration #245     ecut=    35.00 Ry     beta= 0.10
     Davidson diagonalization with overlap
     ethr =  3.21E-10,  avg # of iterations =  5.0

     negative rho (up, down):  4.216E-03 7.350E-03

     total cpu time spent up to now is    53965.6 secs

     total energy              =    -649.02870428 Ry
     estimated scf accuracy    <       0.00000292 Ry

     total magnetization       =    -0.58 Bohr mag/cell
     absolute magnetization    =     2.68 Bohr mag/cell

     iteration #246     ecut=    35.00 Ry     beta= 0.10
     Davidson diagonalization with overlap
     ethr =  3.21E-10,  avg # of iterations =  3.4

     negative rho (up, down):  5.220E-03 7.940E-03

     total cpu time spent up to now is    54004.8 secs

     total energy              =    -649.02864671 Ry
     estimated scf accuracy    <       0.00000332 Ry

     total magnetization       =    -0.58 Bohr mag/cell
     absolute magnetization    =     2.68 Bohr mag/cell

     iteration #247     ecut=    35.00 Ry     beta= 0.10
     Davidson diagonalization with overlap
     ethr =  3.21E-10,  avg # of iterations =  5.0

     negative rho (up, down):  4.267E-03 7.329E-03

     total cpu time spent up to now is    54053.6 secs

     total energy              =    -649.02869597 Ry
     estimated scf accuracy    <       0.00000333 Ry

     total magnetization       =    -0.59 Bohr mag/cell
     absolute magnetization    =     2.69 Bohr mag/cell

     iteration #248     ecut=    35.00 Ry     beta= 0.10
     Davidson diagonalization with overlap
     ethr =  3.21E-10,  avg # of iterations =  3.8

     negative rho (up, down):  4.105E-03 7.165E-03

     total cpu time spent up to now is    54095.1 secs

     total energy              =    -649.02870693 Ry
     estimated scf accuracy    <       0.00000327 Ry

     total magnetization       =    -0.59 Bohr mag/cell
     absolute magnetization    =     2.69 Bohr mag/cell

     iteration #249     ecut=    35.00 Ry     beta= 0.10
     Davidson diagonalization with overlap
     ethr =  3.21E-10,  avg # of iterations =  2.2

     negative rho (up, down):  3.248E-03 6.495E-03

     total cpu time spent up to now is    54129.3 secs

     total energy              =    -649.02875458 Ry
     estimated scf accuracy    <       0.00000270 Ry

     total magnetization       =    -0.59 Bohr mag/cell
     absolute magnetization    =     2.68 Bohr mag/cell

     iteration #250     ecut=    35.00 Ry     beta= 0.10
     Davidson diagonalization with overlap
     ethr =  3.21E-10,  avg # of iterations =  5.1

     negative rho (up, down):  5.975E-03 8.349E-03

     total cpu time spent up to now is    54177.0 secs

     total energy              =    -649.02859006 Ry
     estimated scf accuracy    <       0.00000238 Ry

     total magnetization       =    -0.58 Bohr mag/cell
     absolute magnetization    =     2.68 Bohr mag/cell

     iteration #251     ecut=    35.00 Ry     beta= 0.10
     Davidson diagonalization with overlap
     ethr =  3.21E-10,  avg # of iterations =  6.4

     negative rho (up, down):  5.596E-03 8.080E-03

     total cpu time spent up to now is    54236.9 secs

     total energy              =    -649.02864412 Ry
     estimated scf accuracy    <       0.00000387 Ry

     total magnetization       =    -0.60 Bohr mag/cell
     absolute magnetization    =     2.69 Bohr mag/cell

     iteration #252     ecut=    35.00 Ry     beta= 0.10
     Davidson diagonalization with overlap
     ethr =  3.21E-10,  avg # of iterations =  2.3

     negative rho (up, down):  4.792E-03 7.610E-03

     total cpu time spent up to now is    54273.4 secs

     total energy              =    -649.02867133 Ry
     estimated scf accuracy    <       0.00000405 Ry

     total magnetization       =    -0.60 Bohr mag/cell
     absolute magnetization    =     2.69 Bohr mag/cell

     iteration #253     ecut=    35.00 Ry     beta= 0.10
     Davidson diagonalization with overlap
     ethr =  3.21E-10,  avg # of iterations =  3.6

     negative rho (up, down):  4.227E-03 7.250E-03

     total cpu time spent up to now is    54314.7 secs

     total energy              =    -649.02869946 Ry
     estimated scf accuracy    <       0.00000431 Ry

     total magnetization       =    -0.60 Bohr mag/cell
     absolute magnetization    =     2.69 Bohr mag/cell

     iteration #254     ecut=    35.00 Ry     beta= 0.10
     Davidson diagonalization with overlap
     ethr =  3.21E-10,  avg # of iterations =  3.2

     negative rho (up, down):  3.165E-03 6.225E-03

     total cpu time spent up to now is    54353.3 secs

     total energy              =    -649.02873392 Ry
     estimated scf accuracy    <       0.00000488 Ry

     total magnetization       =    -0.59 Bohr mag/cell
     absolute magnetization    =     2.69 Bohr mag/cell

     iteration #255     ecut=    35.00 Ry     beta= 0.10
     Davidson diagonalization with overlap
     ethr =  3.21E-10,  avg # of iterations =  6.3

     negative rho (up, down):  3.830E-03 7.147E-03

     total cpu time spent up to now is    54414.3 secs

     total energy              =    -649.02866935 Ry
     estimated scf accuracy    <       0.00001083 Ry

     total magnetization       =    -0.57 Bohr mag/cell
     absolute magnetization    =     2.68 Bohr mag/cell

     iteration #256     ecut=    35.00 Ry     beta= 0.10
     Davidson diagonalization with overlap
     ethr =  3.21E-10,  avg # of iterations =  6.4

     negative rho (up, down):  2.979E-03 6.197E-03

     total cpu time spent up to now is    54475.0 secs

     total energy              =    -649.02876983 Ry
     estimated scf accuracy    <       0.00001012 Ry

     total magnetization       =    -0.60 Bohr mag/cell
     absolute magnetization    =     2.69 Bohr mag/cell

     iteration #257     ecut=    35.00 Ry     beta= 0.10
     Davidson diagonalization with overlap
     ethr =  3.21E-10,  avg # of iterations =  5.6

     negative rho (up, down):  3.160E-03 6.462E-03

     total cpu time spent up to now is    54527.9 secs

     total energy              =    -649.02876002 Ry
     estimated scf accuracy    <       0.00000907 Ry

     total magnetization       =    -0.59 Bohr mag/cell
     absolute magnetization    =     2.69 Bohr mag/cell

     iteration #258     ecut=    35.00 Ry     beta= 0.10
     Davidson diagonalization with overlap
     ethr =  3.21E-10,  avg # of iterations =  4.8

     negative rho (up, down):  3.423E-03 6.663E-03

     total cpu time spent up to now is    54575.4 secs

     total energy              =    -649.02874544 Ry
     estimated scf accuracy    <       0.00000651 Ry

     total magnetization       =    -0.59 Bohr mag/cell
     absolute magnetization    =     2.69 Bohr mag/cell

     iteration #259     ecut=    35.00 Ry     beta= 0.10
     Davidson diagonalization with overlap
     ethr =  3.21E-10,  avg # of iterations =  5.0

     negative rho (up, down):  6.886E-03 9.207E-03

     total cpu time spent up to now is    54622.6 secs

     total energy              =    -649.02853628 Ry
     estimated scf accuracy    <       0.00000545 Ry

     total magnetization       =    -0.60 Bohr mag/cell
     absolute magnetization    =     2.69 Bohr mag/cell

     iteration #260     ecut=    35.00 Ry     beta= 0.10
     Davidson diagonalization with overlap
     ethr =  3.21E-10,  avg # of iterations =  6.6

     negative rho (up, down):  2.985E-03 6.144E-03

     total cpu time spent up to now is    54684.4 secs

     total energy              =    -649.02871186 Ry
     estimated scf accuracy    <       0.00000922 Ry

     total magnetization       =    -0.62 Bohr mag/cell
     absolute magnetization    =     2.71 Bohr mag/cell

     iteration #261     ecut=    35.00 Ry     beta= 0.10
     Davidson diagonalization with overlap
